# vtk DataFile Version 4.0
vtk output
ASCII
DATASET UNSTRUCTURED_GRID
POINTS 24916 double
-75.2502 72.3737 -21.6514 -106.574 103.355 56.2862 -95.4909 93.3264 31.3944 
-92.5744 90.0507 44.9069 -94.2252 93.0489 49.1374 -62.0427 60.0341 -28.4424 
-62.0107 61.0335 -28.4291 -62.8841 61.0335 -26.3338 -63.7575 61.0335 -24.2386 
-61.9787 62.0329 -28.4157 -63.7255 62.0329 -24.2253 -62.8201 63.0323 -26.3072 
-63.6935 63.0323 -24.2119 -65.4404 63.0323 -20.0214 -63.6615 64.0317 -24.1986 
-64.5349 64.0317 -22.1033 -65.4083 64.0317 -20.0081 -64.5029 65.0311 -22.09 
-72.2356 69.0287 -3.17943 -91.684 89.0166 45.278 -91.652 90.016 45.2914 
-92.5254 90.016 47.3866 -95.923 93.0142 55.8076 -100.162 97.0118 66.3372 
-100.13 98.0112 66.3506 -105.243 102.009 78.9754 -61.9617 60.9988 -25.9493 
-62.8351 60.9988 -23.8541 -63.7085 60.9988 -21.7588 -62.8031 61.9982 -23.8407 
-63.6765 61.9982 -21.7455 -64.5499 61.9982 -19.6502 -62.7711 62.9976 -23.8274 
-63.6445 62.9976 -21.7321 -64.5179 62.9976 -19.6369 -65.3913 62.9976 -17.5417 
-63.6125 63.997 -21.7188 -64.4859 63.997 -19.6236 -64.4539 64.9964 -19.6102 
-90.7295 89.9813 45.6759 -99.2396 96.9771 66.7218 -104.32 101.974 79.3599 
-63.6275 61.9635 -19.2657 -64.5009 61.9635 -17.1705 -62.722 62.9629 -21.3476 
-63.5954 62.9629 -19.2524 -64.4689 62.9629 -17.1571 -65.3423 62.9629 -15.0619 
-63.5634 63.9623 -19.239 -64.4368 63.9623 -17.1438 -65.3103 63.9623 -15.0485 
-67.7854 66.9258 -6.24299 -68.6589 66.9258 -4.14775 -67.7534 67.9252 -6.22965 
-68.6268 67.9252 -4.13441 -67.7684 65.8917 -3.77656 -66.863 66.8911 -5.85846 
-67.7364 66.8911 -3.76322 -67.7044 67.8905 -3.74987 -68.5458 68.8899 -1.64128 
-69.3872 69.8893 0.467303 -83.7701 82.8468 38.7397 -86.1302 84.7069 54.9712 
-59.7735 60.6866 -7.82181 -63.2672 60.6866 0.559158 -70.0304 67.6824 17.4145 
-102.196 99.6631 97.4608 -63.9955 63.6501 5.17421 -69.0759 68.6471 17.8124 
-59.7074 59.6178 -2.8756 -69.0419 66.5789 22.7453 -103.651 102.523 111.61 
-71.468 69.5078 34.0306 -95.1064 93.4586 95.4974 -107.774 105.417 129.566 
-67.0329 65.3714 33.4201 -71.2058 68.3002 48.8959 -83.9229 80.293 80.4847 
-65.1709 64.268 36.6556 -67.7592 65.2674 42.9547 -67.7271 66.2668 42.968 
-82.9685 81.2577 80.8825 -76.9976 75.2267 68.6156 -80.3952 78.2249 77.0366 
-60.7677 59.1322 36.0318 -71.802 69.1262 63.4034 -94.535 94.0765 122.788 
-74.1791 72.0204 77.1684 -43.6154 43.0031 3.8325 -43.5984 41.969 6.29893 
-90.0828 88.9061 124.644 -48.6128 45.8973 23.8833 -48.5808 46.8966 23.8967 
-93.3973 89.8014 140.478 -42.3327 41.6915 24.0419 -45.6643 43.621 37.4091 
-44.7738 42.5869 37.7803 -44.7418 43.5863 37.7936 -45.6152 43.5863 39.8889 
-44.7098 44.5857 37.807 -45.5832 44.5857 39.9022 -43.8514 42.5522 38.1648 
-44.7248 42.5522 40.2601 -43.8193 43.5516 38.1782 -44.6928 43.5516 40.2734 
-44.6607 44.551 40.2868 -44.6287 45.5504 40.3001 -43.8023 42.5175 40.6446 
-43.7703 43.5169 40.658 -43.7383 44.5163 40.6713 -47.9773 48.5139 51.2009 
-24.2089 25.4931 -5.29305 -41.9574 42.4481 41.4137 -64.058 61.4367 96.1435 
-32.5398 33.3842 23.2055 -19.0283 17.3591 -8.05216 -74.9132 72.326 130.968 
-74.8642 72.2913 133.448 -99.393 97.2763 194.543 -106.998 105.271 213.507 
-51.0317 51.2693 76.9803 -73.1003 71.2573 131.724 -73.9417 72.2567 133.832 
-73.9097 73.256 133.845 -86.6268 85.2488 165.434 -41.7272 40.2412 56.2656 
-62.8584 62.228 108.94 -92.4996 91.2105 182.661 -34.8829 34.2101 41.9034 
-36.6297 34.2101 46.0939 -34.8509 35.2095 41.9168 -35.7243 35.2095 44.012 
-36.5977 35.2095 46.1072 -37.4711 35.2095 48.2025 -35.6923 36.2089 44.0254 
-39.154 37.2083 52.4197 -88.2756 85.1795 174.584 -27.2612 25.1809 25.4059 
-35.7073 34.1755 46.4784 -36.5807 34.1755 48.5737 -33.9284 35.1749 42.3013 
-35.6753 35.1749 46.4918 -37.4221 35.1749 50.6823 -34.7698 36.1743 44.4099 
-49.1698 50.1658 80.2158 -58.5853 56.1622 103.344 -24.688 22.148 21.5599 
-24.656 23.1474 21.5733 -25.5294 23.1474 23.6685 -24.6239 24.1468 21.5866 
-25.4974 24.1468 23.6819 -26.3708 24.1468 25.7771 -25.4653 25.1462 23.6952 
-26.3388 25.1462 25.7904 -27.2122 25.1462 27.8857 -26.3067 26.1456 25.8038 
-27.1802 26.1456 27.899 -26.2747 27.145 25.8171 -28.895 27.145 32.1029 
-29.7684 27.145 34.1981 -30.6098 28.1444 36.3067 -22.0827 20.1145 17.7273 
-22.0507 21.1139 17.7406 -22.9241 21.1139 19.8359 -22.8921 22.1133 19.8492 
-23.7655 22.1133 21.9445 -24.6389 22.1133 24.0397 -22.8601 23.1127 19.8626 
-23.7335 23.1127 21.9578 -24.6069 23.1127 24.053 -25.4803 23.1127 26.1483 
-23.7015 24.1121 21.9711 -24.5749 24.1121 24.0664 -25.4483 24.1121 26.1616 
-26.3217 24.1121 28.2569 -23.6695 25.1115 21.9845 -24.5429 25.1115 24.0797 
-25.4163 25.1115 26.175 -26.2897 25.1115 28.2702 -27.1631 25.1115 30.3655 
-24.5109 26.1109 24.0931 -25.3843 26.1109 26.1883 -26.2577 26.1109 28.2836 
-27.1311 26.1109 30.3788 -28.0046 26.1109 32.474 -26.2257 27.1103 28.2969 
-27.0991 27.1103 30.3922 -27.9725 27.1103 32.4874 -28.846 27.1103 34.5826 
-29.7194 27.1103 36.6779 -27.0671 28.1097 30.4055 -27.9405 28.1097 32.5007 
-28.8139 28.1097 34.596 -29.6874 28.1097 36.6912 -30.5608 28.1097 38.7865 
-28.7819 29.1091 34.6093 -29.6553 29.1091 36.7046 -30.5288 29.1091 38.7998 
-31.4022 29.1091 40.8951 -31.3702 30.1085 40.9084 -32.2436 30.1085 43.0036 
-17.7946 16.0822 9.67746 -17.7626 17.0816 9.69081 -18.636 17.0816 11.7861 
-19.5095 17.0816 13.8813 -18.604 18.081 11.7994 -19.4774 18.081 13.8946 
-20.3509 18.081 15.9899 -18.572 19.0804 11.8127 -19.4454 19.0804 13.908 
-20.3188 19.0804 16.0032 -21.1923 19.0804 18.0985 -19.4134 20.0798 13.9213 
-20.2868 20.0798 16.0166 -21.1602 20.0798 18.1118 -22.0337 20.0798 20.2071 
-20.2548 21.0792 16.0299 -21.1282 21.0792 18.1252 -22.0016 21.0792 20.2204 
-22.8751 21.0792 22.3156 -21.0962 22.0786 18.1385 -21.9696 22.0786 20.2337 
-22.8431 22.0786 22.329 -23.7165 22.0786 24.4242 -24.5899 22.0786 26.5195 
-21.9376 23.078 20.2471 -22.811 23.078 22.3423 -23.6845 23.078 24.4376 
-24.5579 23.078 26.5328 -25.4313 23.078 28.6281 -22.779 24.0774 22.3557 
-23.6524 24.0774 24.4509 -24.5259 24.0774 26.5462 -25.3993 24.0774 28.6414 
-26.2727 24.0774 30.7366 -23.6204 25.0768 24.4643 -24.4938 25.0768 26.5595 
-25.3673 25.0768 28.6548 -26.2407 25.0768 30.75 -27.1141 25.0768 32.8452 
-24.4618 26.0762 26.5729 -25.3353 26.0762 28.6681 -26.2087 26.0762 30.7633 
-27.0821 26.0762 32.8586 -27.9555 26.0762 34.9538 -26.1767 27.0756 30.7767 
-27.0501 27.0756 32.8719 -27.9235 27.0756 34.9672 -28.7969 27.0756 37.0624 
-29.6703 27.0756 39.1577 -27.0181 28.075 32.8853 -27.8915 28.075 34.9805 
-28.7649 28.075 37.0758 -29.6383 28.075 39.171 -30.5117 28.075 41.2662 
-27.8595 29.0744 34.9939 -28.7329 29.0744 37.0891 -29.6063 29.0744 39.1843 
-30.4797 29.0744 41.2796 -31.3531 29.0744 43.3748 -28.7009 30.0738 37.1024 
-29.5743 30.0738 39.1977 -30.4477 30.0738 41.2929 -31.3211 30.0738 43.3882 
-32.1946 30.0738 45.4834 -30.4157 31.0732 41.3063 -31.2891 31.0732 43.4015 
-32.1625 31.0732 45.4968 -33.036 31.0732 47.592 -31.2571 32.0726 43.4149 
-32.1305 32.0726 45.5101 -33.0039 32.0726 47.6053 -33.8774 32.0726 49.7006 
-34.7508 32.0726 51.7958 -32.9719 33.072 47.6187 -33.8453 33.072 49.7139 
-34.7188 33.072 51.8092 -35.5922 33.072 53.9044 -35.5602 34.0714 53.9178 
-36.4336 34.0714 56.013 -16.0628 14.0487 7.94007 -16.0308 15.0481 7.95341 
-16.9042 15.0481 10.0487 -16.8722 16.0475 10.062 -17.7456 16.0475 12.1572 
-16.8402 17.0469 10.0753 -17.7136 17.0469 12.1706 -18.587 17.0469 14.2658 
-19.4604 17.0469 16.3611 -16.8081 18.0463 10.0887 -17.6816 18.0463 12.1839 
-18.555 18.0463 14.2792 -19.4284 18.0463 16.3744 -20.3018 18.0463 18.4697 
-17.6495 19.0457 12.1973 -18.523 19.0457 14.2925 -19.3964 19.0457 16.3878 
-20.2698 19.0457 18.483 -21.1432 19.0457 20.5782 -18.4909 20.0451 14.3059 
-19.3644 20.0451 16.4011 -20.2378 20.0451 18.4963 -21.1112 20.0451 20.5916 
-21.9846 20.0451 22.6868 -19.3323 21.0445 16.4145 -20.2058 21.0445 18.5097 
-21.0792 21.0445 20.6049 -21.9526 21.0445 22.7002 -22.826 21.0445 24.7954 
-21.0472 22.0439 20.6183 -21.9206 22.0439 22.7135 -22.794 22.0439 24.8088 
-23.6674 22.0439 26.904 -24.5409 22.0439 28.9992 -21.8886 23.0433 22.7269 
-22.762 23.0433 24.8221 -23.6354 23.0433 26.9174 -24.5088 23.0433 29.0126 
-25.3823 23.0433 31.1078 -22.73 24.0427 24.8355 -23.6034 24.0427 26.9307 
-24.4768 24.0427 29.0259 -25.3502 24.0427 31.1212 -26.2237 24.0427 33.2164 
-23.5714 25.0421 26.944 -24.4448 25.0421 29.0393 -25.3182 25.0421 31.1345 
-26.1917 25.0421 33.2298 -27.0651 25.0421 35.325 -25.2862 26.0415 31.1479 
-26.1596 26.0415 33.2431 -27.0331 26.0415 35.3384 -27.9065 26.0415 37.4336 
-26.1276 27.0409 33.2565 -27.001 27.0409 35.3517 -27.8745 27.0409 37.4469 
-28.7479 27.0409 39.5422 -29.6213 27.0409 41.6374 -26.969 28.0403 35.3651 
-27.8424 28.0403 37.4603 -28.7159 28.0403 39.5555 -29.5893 28.0403 41.6508 
-30.4627 28.0403 43.746 -27.8104 29.0397 37.4736 -28.6838 29.0397 39.5689 
-29.5573 29.0397 41.6641 -30.4307 29.0397 43.7594 -31.3041 29.0397 45.8546 
-28.6518 30.0391 39.5822 -29.5253 30.0391 41.6775 -30.3987 30.0391 43.7727 
-31.2721 30.0391 45.8679 -32.1455 30.0391 47.9632 -30.3667 31.0385 43.7861 
-31.2401 31.0385 45.8813 -32.1135 31.0385 47.9765 -32.9869 31.0385 50.0718 
-31.2081 32.0379 45.8946 -32.0815 32.0379 47.9899 -32.9549 32.0379 50.0851 
-33.8283 32.0379 52.1804 -34.7017 32.0379 54.2756 -32.0495 33.0373 48.0032 
-32.9229 33.0373 50.0985 -33.7963 33.0373 52.1937 -34.6697 33.0373 54.289 
-35.5431 33.0373 56.3842 -32.8909 34.0367 50.1118 -33.7643 34.0367 52.2071 
-34.6377 34.0367 54.3023 -35.5111 34.0367 56.3975 -36.3846 34.0367 58.4928 
-33.7323 35.0361 52.2204 -34.6057 35.0361 54.3156 -35.4791 35.0361 56.4109 
-36.3525 35.0361 58.5061 -37.226 35.0361 60.6014 -35.4471 36.0355 56.4242 
-36.3205 36.0355 58.5195 -38.0674 36.0355 62.71 -68.55 66.0175 138.539 
-68.518 67.0169 138.552 -68.486 68.0163 138.566 -14.3309 12.0153 6.20267 
-15.1723 13.0147 8.31126 -15.1403 14.0141 8.3246 -16.0137 14.0141 10.4198 
-15.1083 15.0135 8.33795 -15.9817 15.0135 10.4332 -16.8551 15.0135 12.5284 
-15.0763 16.0129 8.35129 -15.9497 16.0129 10.4465 -16.8231 16.0129 12.5418 
[...]
POINT_DATA 24916
VECTORS DTMRIFiberOrientation float
-0.046424 -0.222578 0.973809 -0.346727 0.0240784 -0.937657 -0.282193 -0.956043 0.0796744 
-0.265109 -0.745285 0.611774 -0.927028 -0.374167 -0.024861 -0.696415 0.528938 -0.485006 
-0.0220254 0.74519 -0.666488 0.406455 0.900477 0.154712 -0.361464 -0.338224 -0.868877 
-0.629737 -0.774033 -0.0656077 -0.0776831 0.315434 0.945763 -0.972263 0.107291 0.20783 
-0.001973 -0.276849 -0.960911 -0.614905 0.516454 0.595959 -0.195478 -0.408697 -0.89149 
-0.991524 0.084848 0.0983939 -0.276602 0.595899 -0.75392 -0.821413 -0.562445 0.0945309 
-0.829163 -0.426788 -0.361026 -0.606558 0.355415 -0.711173 -0.0319323 0.0772327 -0.996502 
0.700535 -0.704348 -0.11465 -0.855032 -0.160894 0.492985 -0.130589 -0.835215 0.534193 
-0.081399 -0.428747 -0.89975 -0.671472 0.720339 -0.173886 0.127993 0.763116 -0.63346 
-0.733437 -0.618268 -0.282516 -0.357599 0.928402 0.100957 -0.796356 -0.0914656 -0.597872 
-0.464843 0.727992 -0.503933 -0.221762 0.917143 -0.331164 -0.743835 0.522075 -0.41731 
-0.172549 0.908238 -0.381223 -0.300082 0.408916 -0.861823 -0.214138 0.948963 -0.231549 
-0.85384 0.499827 -0.145362 -0.38915 0.846573 0.363148 -0.946715 -0.270882 0.174223 
-0.680552 0.386517 0.622458 -0.628634 0.404735 -0.664084 -0.579166 0.790387 -0.199638 
-0.55912 -0.828756 0.0234185 -0.209355 -0.688938 -0.693927 -0.101613 -0.990155 0.096272 
-0.614346 0.547606 -0.568072 -0.0426704 0.979986 -0.194437 -0.431444 -0.628909 0.646784 
-0.327949 -0.387951 0.861361 0.0537572 -0.83698 0.544587 0.0135461 0.658537 -0.752426 
-0.0829142 0.326423 -0.94158 -0.809709 -0.482794 0.333587 -0.508802 0.448336 -0.734926 
-0.727599 -0.586291 0.356177 -0.774643 0.175322 -0.607611 -0.829588 -0.491605 0.264779 
-0.911634 0.119742 -0.393174 -0.160924 -0.256215 0.95313 -0.604949 0.138613 -0.784107 
-0.56707 -0.176955 0.804437 -0.782207 0.604333 0.15144 -0.247475 -0.718875 -0.649596 
0.314159 -0.870402 -0.379084 -0.392731 0.579648 0.713982 0.482105 -0.754573 -0.44519 
0.0152231 -0.968723 0.247676 0.428893 0.903324 0.00756685 0.0223577 -0.9935 -0.111612 
-0.472518 0.758569 0.448665 -0.703794 0.649496 0.2878 -0.82641 0.476347 0.300232 
-0.421288 0.906567 -0.0255517 -0.140294 -0.805229 -0.576129 -0.0892342 -0.901758 -0.422931 
0.133086 -0.860092 -0.492473 -0.0896179 -0.995974 -0.00226207 -0.0959672 0.94774 0.304269 
-0.793254 0.372064 0.481993 -0.596308 0.273981 0.754554 -0.638852 0.51577 0.570832 
-0.526979 0.540932 0.655504 0.313494 -0.884911 -0.344462 -0.0560032 0.989387 0.134077 
-0.0864279 -0.951343 0.295766 -0.50577 0.763825 0.400959 -0.115435 -0.970173 -0.213164 
0.222509 -0.9044 -0.364075 -0.170489 0.946499 0.273994 -0.231142 0.959296 0.162249 
0.217802 -0.893321 -0.393115 0.463014 0.0153738 -0.886218 0.223005 0.0387792 -0.974046 
-0.273183 0.459098 0.84534 -0.151702 -0.206151 0.966689 -0.545938 -0.00306715 -0.83782 
-0.148915 0.312142 -0.938292 -0.101408 0.362359 -0.926506 -0.395941 -0.20634 0.894793 
-0.403308 0.0841121 0.911191 -0.271146 -0.419115 -0.8665 0.0953263 0.150586 -0.98399 
-0.159112 -0.077424 -0.98422 0.244312 0.0849415 -0.965969 -0.5967 -0.437978 -0.672402 
-0.514693 -0.575763 -0.635285 -0.0545979 0.16039 0.985543 0.312785 -0.0442322 -0.948793 
-0.0349649 -0.195098 -0.98016 -0.576989 -0.133666 0.80574 0.0933088 -0.789149 0.607072 
0.285823 -0.905852 0.312629 -0.870147 0.369599 -0.325946 0.311972 -0.950076 0.00542949 
0.888509 -0.265662 -0.374134 -0.0680108 0.997685 -0.000259891 -0.201835 0.701182 0.683818 
-0.186562 -0.716071 -0.672634 -0.00292859 0.962168 -0.272442 -0.183595 0.982982 0.00627961 
-0.480377 -0.630861 0.609305 0.51156 -0.421335 -0.748855 -0.520557 0.82607 0.215936 
0.490501 -0.762381 -0.422119 -0.47705 0.876786 0.0605754 0.108202 -0.435421 0.8937 
0.133795 -0.59874 -0.789689 -0.111607 0.864561 0.489978 -0.487245 -0.797455 0.355891 
-0.334801 -0.234997 0.912516 0.484433 0.689629 -0.538271 0.508334 0.839222 0.193141 
-0.978303 0.19923 0.0568399 -0.355061 -0.117867 -0.927383 -0.537523 -0.131924 0.832865 
-0.0613396 -0.603567 -0.794949 0.647324 -0.501341 -0.574134 -0.723724 0.442269 0.529737 
-0.251854 -0.559332 -0.789758 -0.303417 -0.458077 -0.835526 -0.505847 -0.861539 0.0432347 
-0.0843987 -0.533846 -0.841359 -0.0662262 -0.350592 -0.934184 0.416624 0.765354 0.490569 
-0.864536 0.440967 -0.241092 -0.0541478 0.833802 -0.549402 -0.113359 -0.92341 -0.366693 
0.166564 -0.932229 -0.321257 -0.183179 -0.895464 -0.405697 0.569362 -0.763811 -0.304006 
-0.0606415 -0.931816 -0.357829 -0.320668 -0.856637 -0.40416 0.198038 -0.942586 -0.268911 
-0.292504 -0.874495 -0.38691 -0.119683 -0.974528 -0.18966 0.22732 0.914416 0.334917 
0.267412 -0.960936 -0.071364 -0.542195 0.62695 0.559427 -0.722312 0.236235 0.649968 
0.188491 -0.952036 -0.241037 -0.835813 0.179674 0.518782 -0.00518557 0.952604 0.30417 
0.582199 -0.802667 -0.129499 -0.182429 -0.960107 -0.21193 -0.169558 0.98383 0.0577007 
-0.238143 -0.91076 -0.337349 -0.295272 -0.912402 -0.283438 -0.568282 0.822055 0.035788 
-0.201529 -0.915126 -0.349186 -0.267211 -0.905175 -0.330539 -0.332395 -0.897475 -0.289918 
-0.121863 -0.945492 -0.301984 -0.247252 -0.903628 -0.349746 -0.357535 -0.872837 -0.332152 
-0.367461 -0.863615 -0.345169 0.22204 -0.934142 -0.279422 -0.22951 -0.904196 -0.360216 
-0.356011 -0.865344 -0.352754 -0.37464 -0.844102 -0.383585 -0.278857 -0.913726 -0.295538 
-0.132512 -0.92639 -0.352481 -0.328453 -0.867591 -0.37337 -0.327994 -0.842986 -0.426375 
-0.234514 -0.951247 -0.200331 -0.266341 -0.890043 -0.369981 -0.231326 -0.854231 -0.465594 
-0.00543143 -0.999907 -0.0125421 -0.216824 -0.897229 -0.384666 -0.290115 -0.864824 -0.409772 
-0.330072 -0.850931 -0.408619 -0.826482 0.049947 0.560744 0.0234048 0.918715 0.394228 
0.128281 0.905362 0.404802 -0.307156 -0.864022 -0.3989 0.308138 0.837325 0.451594 
0.448627 -0.747744 -0.489503 0.211101 0.929976 0.300968 0.0795805 0.898259 0.432201 
0.086844 0.894047 0.439475 -0.388725 0.666763 0.635862 -0.724992 0.37693 0.576463 
0.557925 -0.749178 -0.357003 -0.76782 0.419879 0.483895 -0.153107 -0.875023 -0.459231 
0.192291 0.91756 0.348005 -0.105914 0.923738 0.36809 0.0862212 -0.969089 -0.231154 
-0.236172 -0.954376 -0.182725 0.69017 -0.648641 -0.320826 0.392521 -0.91974 -0.0023773 
-0.222971 -0.969604 -0.100759 -0.302732 -0.902304 -0.306922 0.588333 -0.808618 -0.00143705 
-0.0939362 -0.995563 -0.0055108 -0.292554 -0.879002 -0.37652 -0.287346 -0.925287 -0.24754 
0.303599 -0.952466 0.0252409 -0.284128 -0.87235 -0.397841 -0.346899 -0.889011 -0.298865 
-0.27808 -0.943027 -0.182678 -0.135064 -0.8978 -0.419182 -0.324262 -0.885526 -0.332713 
-0.286368 -0.923508 -0.255197 -0.36332 -0.917696 -0.160724 -0.295374 -0.953739 -0.0559957 
-0.221382 -0.936922 -0.270496 -0.286517 -0.909792 -0.30031 -0.343925 -0.912992 -0.219458 
-0.310268 -0.94439 -0.108908 -0.3431 -0.922986 -0.174294 -0.275094 -0.915582 -0.293313 
-0.313326 -0.915016 -0.254111 -0.357656 -0.912345 -0.19927 -0.359512 -0.908529 -0.212899 
-0.343325 -0.901511 -0.26345 -0.30308 -0.902796 -0.305126 -0.347972 -0.901785 -0.256319 
-0.349264 -0.89199 -0.287 -0.363871 -0.870832 -0.330529 -0.29415 -0.926599 -0.234285 
-0.320685 -0.894672 -0.311005 -0.333251 -0.869085 -0.365562 -0.353389 -0.858955 -0.370558 
-0.283842 -0.910955 -0.299323 -0.328648 -0.889577 -0.317243 -0.331975 -0.86255 -0.381837 
-0.293332 -0.888933 -0.351788 -0.333389 -0.866884 -0.370626 -0.356768 -0.857541 -0.370595 
-0.376401 -0.83667 -0.397876 -0.293133 -0.87236 -0.391229 -0.321817 -0.852975 -0.410934 
-0.364143 -0.848389 -0.384234 -0.387786 -0.816714 -0.427317 -0.300022 -0.836468 -0.458594 
-0.299363 -0.832296 -0.466546 -0.335023 -0.844935 -0.416947 -0.339456 -0.825053 -0.451726 
-0.331656 -0.835718 -0.437699 -0.321731 -0.833655 -0.448897 0.252964 0.875865 0.410936 
0.265488 0.831858 0.487369 -0.339472 -0.845186 -0.412818 -0.309537 -0.854922 -0.416288 
-0.206591 -0.847425 -0.489071 0.0229638 0.855577 0.517165 0.174854 0.967579 0.182258 
-0.0755855 0.883408 0.462469 -0.121287 -0.870075 -0.477764 -0.654093 -0.717197 0.240396 
-0.125838 0.936826 0.326378 0.224773 -0.860135 -0.45787 0.166918 0.893657 0.416552 
0.118467 0.810693 0.57336 -0.339393 0.718235 0.607413 -0.0687456 0.954063 0.291612 
0.278991 -0.733835 -0.619395 0.037321 0.813306 0.580638 0.221393 0.895286 0.386584 
-0.645252 0.393044 0.655108 0.280561 -0.878957 -0.385642 0.433726 -0.764559 -0.476792 
-0.246767 -0.896709 -0.367448 -0.195711 -0.892117 -0.407216 -0.288884 -0.865004 -0.41026 
-0.0190917 -0.928539 -0.370743 -0.297279 -0.848759 -0.437302 -0.338499 -0.878267 -0.337735 
-0.229892 -0.973063 0.0172987 0.134761 -0.949287 -0.284067 -0.271199 -0.845706 -0.4596 
-0.33349 -0.885564 -0.323357 0.278178 0.954674 0.105896 -0.303011 -0.949324 0.0834723 
-0.220382 -0.874963 -0.431128 -0.307978 -0.873906 -0.376082 -0.327639 -0.924554 -0.194559 
-0.341461 -0.938994 -0.0411565 -0.287999 -0.957572 0.0106312 -0.316985 -0.847678 -0.425398 
-0.358022 -0.900545 -0.246654 -0.331322 -0.928823 -0.165871 -0.315108 -0.946508 -0.0694943 
0.335876 0.935149 0.112619 0.29244 0.921724 0.254761 -0.324571 -0.911125 -0.253976 
-0.350718 -0.913156 -0.20771 0.32712 0.938794 0.107975 0.330247 0.943875 0.00607822 
-0.369413 -0.877282 -0.306449 -0.334514 -0.928764 -0.159683 0.387214 0.920497 0.0524415 
-0.352376 -0.93254 -0.0787375 -0.299741 -0.946223 -0.121724 -0.339358 -0.917827 -0.205983 
0.389037 0.917022 0.0878746 -0.320614 -0.943136 -0.0877508 -0.339726 -0.933658 -0.113439 
-0.361985 -0.931244 -0.0418492 0.359678 0.924343 0.127366 -0.316571 -0.93793 -0.141668 
-0.359861 -0.928453 -0.0920566 -0.346456 -0.931752 -0.10866 0.323073 0.94616 0.0201423 
-0.32944 -0.928601 -0.170792 -0.320713 -0.940931 -0.108593 -0.3596 -0.902375 -0.237502 
-0.308994 -0.944529 -0.111302 -0.282821 -0.958332 -0.0401511 -0.3847 -0.860798 -0.333215 
-0.300713 -0.935906 -0.183443 -0.320566 -0.928364 -0.18809 -0.315639 -0.935364 -0.159583 
-0.320862 -0.916369 -0.239407 -0.353492 -0.887316 -0.296165 -0.352238 -0.907145 -0.230251 
-0.376379 -0.882702 -0.281382 -0.335328 -0.879673 -0.337239 -0.362628 -0.863073 -0.351576 
-0.377862 -0.878525 -0.292258 -0.389089 -0.847819 -0.360295 -0.34702 -0.86095 -0.371944 
-0.339828 -0.869397 -0.358699 -0.367014 -0.8646 -0.343174 -0.38687 -0.835185 -0.390894 
-0.375988 -0.842268 -0.386288 -0.356194 -0.843512 -0.402011 -0.380674 -0.851651 -0.360247 
-0.370406 -0.819777 -0.436766 -0.393677 -0.822176 -0.411151 -0.371233 -0.827417 -0.421387 
-0.322861 -0.846885 -0.422549 -0.377717 -0.823569 -0.42316 -0.39242 -0.815722 -0.424976 
-0.283135 -0.843123 -0.45714 -0.323405 -0.826667 -0.460469 -0.413583 -0.807031 -0.421485 
-0.327761 -0.842271 -0.427963 -0.236956 -0.837613 -0.492195 -0.337047 -0.838427 -0.428297 
-0.305951 -0.808966 -0.501964 -0.294095 -0.807864 -0.510748 0.190246 0.837721 0.511889 
-0.243885 -0.872198 -0.424018 -0.243701 -0.820701 -0.516777 -0.259491 -0.814733 -0.518531 
-0.277732 -0.794028 -0.540726 0.153092 0.92304 0.35293 0.0834561 0.886862 0.454434 
0.216048 0.879263 0.424523 -0.10524 -0.75524 -0.646944 0.3007 0.768904 0.56424 
0.0837486 0.966048 0.244412 -0.101043 0.887221 0.450144 -0.533115 0.619706 0.57598 
-0.189108 0.868146 0.458869 0.664497 0.53049 -0.526331 -0.7933 0.529345 0.30078 
-0.675558 0.693157 0.251307 -0.790642 -0.319632 0.522227 -0.467957 0.410213 -0.782778 
-0.357807 0.614394 -0.703203 -0.114476 0.679829 -0.724381 -0.416228 0.908209 -0.0437122 
-0.170113 -0.962521 -0.211224 -0.158226 -0.933258 -0.322482 0.282814 0.957621 0.0545727 
-0.0298423 -0.930918 -0.364008 0.2796 0.942632 0.182398 -0.341639 -0.938714 0.0458186 
-0.0600559 0.955179 0.289874 -0.26408 -0.919167 -0.292223 0.335168 0.93709 0.097591 
-0.409138 -0.912469 -0.00265529 -0.218579 -0.904138 -0.367094 0.346597 0.908014 0.235334 
-0.415402 -0.908153 -0.0519568 -0.307812 -0.941374 0.138083 0.341236 0.925612 -0.163709 
-0.368067 -0.872739 -0.320708 -0.416456 -0.900744 -0.123387 -0.298722 -0.946773 0.119946 
0.353579 0.921261 -0.162047 -0.36006 -0.926378 0.110368 -0.417648 -0.878305 -0.232703 
0.333338 0.942799 -0.00406136 -0.366429 -0.912361 0.182558 0.335486 0.933902 -0.123595 
-0.339584 -0.92679 0.160449 -0.375864 -0.916735 -0.13536 -0.365712 -0.919109 0.146604 
-0.336046 -0.932293 0.1338 -0.337092 -0.938493 0.0748393 0.223663 0.948334 -0.225026 
-0.35141 -0.934821 0.0511904 -0.338376 -0.940696 0.0243452 -0.301239 -0.940023 0.160036 
-0.416442 -0.906972 0.0630666 -0.34079 -0.939835 -0.023909 -0.369404 -0.926802 0.0676695 
-0.425537 -0.904874 -0.0109823 -0.360166 -0.9309 -0.0608728 -0.429057 -0.899178 -0.0859604 
-0.397385 -0.917195 0.0289698 -0.369323 -0.923191 -0.106391 -0.372044 -0.921229 -0.113671 
-0.396095 -0.915726 -0.0674896 0.347959 0.935663 -0.0588179 -0.324144 -0.930649 -0.169771 
-0.393383 -0.911583 -0.119443 -0.374521 -0.923917 -0.0781732 -0.343323 -0.939181 0.0082617 
-0.349335 -0.936468 -0.0315139 -0.370919 -0.924689 -0.0858416 -0.377935 -0.919871 -0.104894 
-0.344784 -0.936805 -0.0593355 -0.350483 -0.934146 -0.0673236 -0.387317 -0.918412 -0.0806498 
0.347728 0.936687 0.0412574 -0.361369 -0.92734 -0.0972257 -0.3701 -0.928346 -0.0346485 
0.35984 0.93266 0.0257182 -0.380483 -0.915669 -0.129545 -0.377719 -0.924799 -0.0455586 
0.354261 0.929873 0.0991755 0.320323 0.922192 0.21669 0.36323 0.918011 0.159118 
-0.39411 -0.909548 -0.13191 -0.365613 -0.905713 -0.214503 0.348385 0.900613 0.259853 
-0.34454 -0.905051 -0.24935 -0.410766 -0.890186 -0.197078 -0.392236 -0.86842 -0.303312 
-0.4094 -0.866539 -0.285486 -0.381341 -0.859764 -0.339684 -0.40092 -0.873599 -0.275838 
-0.420149 -0.86214 -0.283178 -0.418452 -0.838466 -0.349103 -0.406423 -0.832818 -0.375811 
-0.385457 -0.854741 -0.347622 -0.427955 -0.849372 -0.308905 -0.356336 -0.85976 -0.365838 
-0.380168 -0.840008 -0.387116 -0.396336 -0.843388 -0.362788 -0.425345 -0.828001 -0.365371 
-0.329286 -0.855306 -0.400028 -0.335096 -0.836762 -0.433058 -0.424001 -0.817417 -0.38994 
-0.369502 -0.819447 -0.43815 -0.355974 -0.839613 -0.410284 -0.382389 -0.82045 -0.425018 
-0.39371 -0.813994 -0.427091 -0.391183 -0.800906 -0.453349 -0.344954 -0.820078 -0.456594 
-0.387907 -0.799813 -0.458069 -0.305643 -0.784673 -0.539324 -0.360312 -0.806704 -0.468406 
-0.282691 -0.809011 -0.515351 -0.334008 -0.773762 -0.538267 -0.339469 -0.768026 -0.543044 
-0.293502 -0.786092 -0.543982 -0.215826 -0.78624 -0.579004 -0.221968 -0.775523 -0.591012 
-0.361259 -0.783243 -0.505986 -0.289444 -0.774568 -0.562376 -0.346341 -0.720479 -0.600797 
-0.307998 -0.815521 -0.489962 -0.370436 -0.778596 -0.506523 -0.46904 -0.697272 -0.542045 
-0.471447 -0.839027 -0.271609 -0.197848 -0.869501 -0.452576 -0.623369 -0.705262 0.337663 
0.492876 0.832783 0.25208 0.531298 0.689999 -0.491553 -0.206853 0.695754 -0.687851 
-0.772977 -0.568449 -0.281731 -0.973844 -0.20771 0.0921141 -0.733061 -0.622633 -0.273768 
-0.969563 -0.235102 0.0683675 -0.0212381 0.93962 -0.34156 -0.140354 -0.968826 0.204151 
0.106856 -0.810358 0.576109 0.227607 0.970411 -0.0806029 -0.263462 -0.952064 0.155443 
0.28141 0.958421 0.0472975 -0.373763 -0.895444 0.241828 -0.419415 -0.896883 0.140326 
-0.212373 -0.971907 -0.101463 -0.400525 -0.903349 0.15343 -0.443747 -0.876205 0.188025 
-0.438825 -0.875183 0.203685 -0.377521 -0.925919 0.0123449 -0.411633 -0.889776 0.197119 
-0.47846 -0.872391 0.100049 -0.465983 -0.884709 0.0122465 -0.429239 -0.876318 0.218678 
-0.495889 -0.864979 0.0768491 -0.45431 -0.890612 0.0202932 0.399075 0.892263 -0.211202 
-0.395719 -0.841216 0.368461 -0.509463 -0.853703 0.107885 0.42473 0.898251 -0.112916 
0.431216 0.8894 -0.151729 -0.379874 -0.87705 0.294073 -0.427015 -0.872069 0.239071 
0.404787 0.895383 -0.185572 -0.422403 -0.890083 0.171253 -0.392362 -0.901557 0.182336 
-0.424216 -0.883506 0.198639 -0.346243 -0.907428 0.238099 -0.405853 -0.890415 0.206021 
0.407544 0.900201 -0.153447 -0.431593 -0.888298 0.157019 -0.365234 -0.905922 0.214267 
0.452245 0.872851 -0.183316 -0.415348 -0.904826 0.0936742 0.378273 0.911801 -0.159778 
-0.495094 -0.843724 0.207393 -0.453907 -0.839891 0.297575 -0.396084 -0.910359 0.119851 
-0.50884 -0.843395 0.17253 -0.415926 -0.891366 0.180199 -0.448847 -0.89207 0.0524146 
-0.357528 -0.907429 0.220787 -0.454809 -0.8893 0.0478909 -0.430849 -0.902401 -0.00647034 
-0.432743 -0.901289 -0.0202925 0.342728 0.923043 -0.174725 -0.403164 -0.902127 0.153707 
-0.452007 -0.887971 -0.0848335 -0.415321 -0.906693 -0.0735912 0.373525 0.921374 -0.107466 
0.392057 0.917373 -0.0686852 -0.406612 -0.91317 0.0280621 -0.41932 -0.903251 -0.0911476 
-0.417838 -0.908503 0.00572633 -0.405345 -0.914151 0.00485373 -0.442266 -0.896654 -0.0203033 
-0.378152 -0.925576 -0.0175988 -0.42449 -0.904035 -0.0502833 -0.464254 -0.883828 -0.0575823 
-0.405612 -0.914013 -0.00767828 -0.433511 -0.89513 -0.103974 -0.455828 -0.886265 -0.0821887 
-0.402879 -0.915249 -0.00301529 0.336701 0.925926 0.171155 -0.435864 -0.894583 -0.0987109 
-0.438524 -0.889075 -0.131309 0.392858 0.919594 0.00317656 0.334115 0.930072 0.152755 
0.40131 0.901801 0.160332 -0.403782 -0.898294 -0.173287 -0.378069 -0.914198 -0.145964 
-0.436229 -0.890227 -0.131147 -0.386945 -0.892352 -0.232339 -0.393128 -0.890728 -0.228151 
-0.412152 -0.895348 -0.168768 0.415183 0.893723 0.169947 -0.407261 -0.866387 -0.288984 
-0.414139 -0.868322 -0.272958 -0.45504 -0.87455 -0.167632 -0.302748 -0.911823 -0.277349 
-0.44626 -0.873668 -0.193796 -0.449525 -0.866972 -0.215144 -0.341824 -0.884227 -0.318275 
-0.309074 -0.892424 -0.328714 -0.409457 -0.874026 -0.26158 -0.45076 -0.831277 -0.325259 
-0.341268 -0.862055 -0.374696 -0.441011 -0.868173 -0.227564 -0.37644 -0.882773 -0.281077 
-0.412279 -0.880998 -0.232095 -0.471062 -0.796006 -0.380099 -0.428071 -0.838751 -0.33653 
-0.455099 -0.831654 -0.318177 -0.364535 -0.834473 -0.413241 -0.44725 -0.838603 -0.310988 
-0.333455 -0.818877 -0.467171 -0.441345 -0.804897 -0.396681 -0.376655 -0.793824 -0.477466 
-0.346256 -0.810125 -0.47308 -0.366095 -0.779828 -0.507782 -0.347988 -0.784174 -0.513785 
-0.406838 -0.783047 -0.470448 -0.279999 -0.793993 -0.539607 -0.35497 -0.746614 -0.562641 
-0.34681 -0.758738 -0.551398 -0.31671 -0.765414 -0.560211 -0.361532 -0.7056 -0.609445 
-0.35767 -0.729739 -0.582712 -0.323937 -0.728549 -0.603557 -0.432254 -0.670657 -0.602807 
-0.399071 -0.701139 -0.590886 0.420585 -0.717753 -0.554923 -0.420018 -0.576514 -0.700868 
-0.718638 -0.689475 0.0904591 0.554139 0.770588 0.314839 -0.492263 -0.699737 0.51773 
0.450707 0.682883 -0.574921 -0.221698 -0.971578 -0.0829779 -0.198375 -0.977637 0.0698117 
-0.295096 -0.894229 0.336561 -0.203852 -0.87936 0.430315 -0.33495 -0.910422 0.242778 
-0.312633 -0.891354 0.328252 -0.368091 -0.876461 0.310362 -0.204356 -0.77364 0.599766 
-0.385543 -0.89367 0.229587 0.368835 0.884555 -0.285522 -0.36461 -0.915498 0.170069 
-0.491218 -0.833306 0.253588 -0.253006 -0.789663 0.558945 0.398528 0.872081 -0.283989 
-0.44152 -0.880609 0.172013 -0.488733 -0.864395 0.118155 0.493362 0.794931 -0.353098 
0.346606 0.91375 -0.211955 -0.462664 -0.864646 0.19578 -0.485277 -0.87302 0.048401 
0.484126 0.838034 -0.251635 -0.502322 -0.733204 0.45835 -0.484115 -0.873071 0.0581431 
-0.526156 -0.845787 0.0883407 -0.527349 -0.808602 0.260895 -0.386035 -0.754858 0.530251 
-0.55741 -0.829949 -0.0219044 -0.532831 -0.840784 0.0957732 -0.434437 -0.792946 0.427203 
-0.474333 -0.780294 0.407614 -0.501813 -0.830049 0.243318 -0.5559 -0.830227 0.041215 
-0.475031 -0.82319 0.310972 -0.478071 -0.797048 0.369002 0.508012 0.836069 -0.207153 
-0.497339 -0.841486 0.21108 -0.509629 -0.836267 0.202325 -0.509468 -0.833026 0.215661 
-0.505837 -0.847107 0.162907 -0.552776 -0.81821 0.158024 0.443057 0.880501 -0.168581 
-0.52003 -0.850793 0.0756345 -0.507814 -0.856801 0.0895361 -0.53886 -0.827672 0.156808 
0.460183 0.870473 -0.174664 -0.471765 -0.848826 0.238605 -0.490796 -0.860631 0.135771 
0.493234 0.838804 -0.230496 -0.481086 -0.809488 0.33658 -0.485151 -0.801397 0.349844 
0.50497 0.827831 -0.244338 -0.493954 -0.805861 0.326492 -0.467094 -0.844273 0.262729 
-0.410432 -0.868497 0.277953 -0.451687 -0.867099 0.210045 -0.490098 -0.845283 0.212839 