# vtk DataFile Version 4.0
vtk output
ASCII
DATASET UNSTRUCTURED_GRID
POINTS 28510 double
-146.652 -2.58115 142.872 -147.525 -2.58115 144.967 -186.829 -2.58115 239.253 
-116.05 -1.58175 69.5516 -162.341 -1.58175 180.599 -115.144 -0.582356 67.4697 
-146.603 -2.61584 145.351 -115.127 -1.61644 69.9361 -112.475 -0.617042 63.6637 
-94.0523 0.347669 22.1568 -122.841 -1.7205 96.2326 -100.974 -0.721101 43.8649 
-113.169 0.278297 73.2117 -118.312 0.208924 90.7427 -68.5419 -1.82456 -26.233 
-168.968 -2.85864 217.186 -170.715 -2.85864 221.377 -171.589 -2.85864 223.472 
-172.462 -2.85864 225.567 -173.335 -2.85864 227.662 -175.082 -2.85864 231.853 
-176.829 -2.85864 236.043 -177.702 -2.85864 238.139 -181.196 -2.85864 246.52 
-65.8726 -1.85924 -30.039 -88.5816 -1.85924 24.4373 -168.936 -1.85924 217.2 
-170.683 -1.85924 221.39 -171.557 -1.85924 223.485 -172.43 -1.85924 225.58 
-173.303 -1.85924 227.676 -174.177 -1.85924 229.771 -175.05 -1.85924 231.866 
-177.67 -1.85924 238.152 -178.544 -1.85924 240.247 -179.417 -1.85924 242.342 
-180.291 -1.85924 244.438 -181.164 -1.85924 246.533 -182.038 -1.85924 248.628 
-65.8406 -0.859846 -30.0256 -163.664 -0.859846 204.641 -167.157 -0.859846 213.022 
-168.904 -0.859846 217.213 -169.778 -0.859846 219.308 -170.651 -0.859846 221.403 
-171.524 -0.859846 223.499 -172.398 -0.859846 225.594 -173.271 -0.859846 227.689 
-177.638 -0.859846 238.165 -178.512 -0.859846 240.261 -179.385 -0.859846 242.356 
-180.259 -0.859846 244.451 -181.132 -0.859846 246.546 -182.006 -0.859846 248.641 
-65.8086 0.139552 -30.0123 -110.353 0.139552 76.845 -152.324 -2.89333 179.856 
-153.198 -2.89333 181.952 -154.071 -2.89333 184.047 -156.691 -2.89333 190.333 
-161.058 -2.89333 200.809 -163.679 -2.89333 207.095 -168.046 -2.89333 217.571 
-169.793 -2.89333 221.761 -170.666 -2.89333 223.856 -171.539 -2.89333 225.952 
-172.413 -2.89333 228.047 -173.286 -2.89333 230.142 -174.16 -2.89333 232.237 
-175.033 -2.89333 234.333 -175.907 -2.89333 236.428 -176.78 -2.89333 238.523 
-177.653 -2.89333 240.618 -178.527 -2.89333 242.714 -179.4 -2.89333 244.809 
-180.274 -2.89333 246.904 -181.147 -2.89333 248.999 -64.9502 -1.89393 -29.6544 
-65.8236 -1.89393 -27.5592 -66.697 -1.89393 -25.4639 -67.5704 -1.89393 -23.3687 
-145.305 -1.89393 163.108 -154.039 -1.89393 184.06 -160.153 -1.89393 198.727 
-168.014 -1.89393 217.584 -169.761 -1.89393 221.775 -170.634 -1.89393 223.87 
-171.507 -1.89393 225.965 -172.381 -1.89393 228.06 -173.254 -1.89393 230.156 
-174.128 -1.89393 232.251 -175.001 -1.89393 234.346 -175.875 -1.89393 236.441 
-176.748 -1.89393 238.536 -177.621 -1.89393 240.632 -178.495 -1.89393 242.727 
-179.368 -1.89393 244.822 -181.115 -1.89393 249.013 -64.9182 -0.894533 -29.6411 
-65.7916 -0.894533 -27.5458 -66.665 -0.894533 -25.4506 -67.5384 -0.894533 -23.3554 
-121.69 -0.894533 106.55 -158.374 -0.894533 194.55 -160.121 -0.894533 198.74 
-167.982 -0.894533 217.597 -168.855 -0.894533 219.693 -169.729 -0.894533 221.788 
-170.602 -0.894533 223.883 -171.475 -0.894533 225.978 -172.349 -0.894533 228.074 
-173.222 -0.894533 230.169 -174.096 -0.894533 232.264 -174.969 -0.894533 234.359 
-175.843 -0.894533 236.455 -176.716 -0.894533 238.55 -177.589 -0.894533 240.645 
-178.463 -0.894533 242.74 -179.336 -0.894533 244.836 -181.083 -0.894533 249.026 
-64.8861 0.104866 -29.6277 -65.7596 0.104866 -27.5325 -66.633 0.104866 -25.4373 
-109.431 0.104866 77.2296 -119.038 0.104866 100.277 -123.405 0.104866 110.753 
-151.402 -2.92802 180.241 -153.149 -2.92802 184.431 -154.022 -2.92802 186.527 
-160.136 -2.92802 201.193 -167.123 -2.92802 217.955 -167.997 -2.92802 220.05 
-170.617 -2.92802 226.336 -171.49 -2.92802 228.431 -172.364 -2.92802 230.527 
-173.237 -2.92802 232.622 -177.604 -2.92802 243.098 -180.225 -2.92802 249.384 
-64.0277 -1.92862 -29.2699 -64.9011 -1.92862 -27.1747 -65.7746 -1.92862 -25.0794 
-66.648 -1.92862 -22.9842 -67.5214 -1.92862 -20.8889 -68.3948 -1.92862 -18.7937 
-96.3443 -1.92862 48.254 -97.2177 -1.92862 50.3493 -159.231 -1.92862 199.111 
-167.965 -1.92862 220.064 -177.572 -1.92862 243.111 -180.193 -1.92862 249.397 
-63.9957 -0.929219 -29.2566 -64.8691 -0.929219 -27.1613 -65.7425 -0.929219 -25.0661 
-66.616 -0.929219 -22.9708 -67.4894 -0.929219 -20.8756 -68.3628 -0.929219 -18.7803 
-97.1857 -0.929219 50.3626 -107.667 -0.929219 75.5055 -120.768 -0.929219 106.934 
-153.085 -0.929219 184.458 -158.325 -0.929219 197.03 -159.199 -0.929219 199.125 
-169.68 -0.929219 224.268 -172.3 -0.929219 230.553 -174.047 -0.929219 234.744 
-174.92 -0.929219 236.839 -175.794 -0.929219 238.934 -177.54 -0.929219 243.125 
-178.414 -0.929219 245.22 -180.161 -0.929219 249.411 -63.9637 0.0701794 -29.2432 
-64.8371 0.0701794 -27.148 -65.7105 0.0701794 -25.0527 -66.5839 0.0701794 -22.9575 
-67.4574 0.0701794 -20.8622 -172.315 -2.9627 233.006 -63.1053 -1.9633 -28.8854 
-63.9787 -1.9633 -26.7901 -64.8521 -1.9633 -24.6949 -65.7255 -1.9633 -22.5996 
-66.5989 -1.9633 -20.5044 -67.4724 -1.9633 -18.4092 -68.3458 -1.9633 -16.3139 
-69.2192 -1.9633 -14.2187 -91.9281 -1.9633 40.2576 -96.2952 -1.9633 50.7338 
-119.878 -1.9633 107.305 -162.675 -1.9633 209.972 -63.9467 -0.963905 -26.7768 
-64.8201 -0.963905 -24.6815 -65.6935 -0.963905 -22.5863 -66.5669 -0.963905 -20.491 
-67.4403 -0.963905 -18.3958 -68.3138 -0.963905 -16.3006 -69.1872 -0.963905 -14.2053 
-96.2632 -0.963905 50.7472 -119.846 -0.963905 107.319 -162.643 -0.963905 209.986 
-63.9146 0.0354932 -26.7634 -64.7881 0.0354932 -24.6682 -65.6615 0.0354932 -22.5729 
-66.5349 0.0354932 -20.4777 -67.4083 0.0354932 -18.3825 -68.2817 0.0354932 -16.2872 
-69.1552 0.0354932 -14.192 -112.826 0.0354932 90.5701 -166.152 -2.99739 220.82 
-167.025 -2.99739 222.915 -63.9296 -1.99799 -24.3103 -64.8031 -1.99799 -22.2151 
-65.6765 -1.99799 -20.1199 -66.5499 -1.99799 -18.0246 -67.4233 -1.99799 -15.9294 
-68.2967 -1.99799 -13.8341 -166.12 -1.99799 220.833 -166.993 -1.99799 222.928 
-167.867 -1.99799 225.023 -64.771 -0.998591 -22.2018 -65.6445 -0.998591 -20.1065 
-66.5179 -0.998591 -18.0113 -67.3913 -0.998591 -15.916 -68.2647 -0.998591 -13.8208 
-69.1381 -0.998591 -11.7255 -166.088 -0.998591 220.846 -64.739 0.000806912 -22.1884 
-65.6124 0.000806912 -20.0932 -66.4859 0.000806912 -17.9979 -67.3593 0.000806912 -15.9027 
-68.2327 0.000806912 -13.8074 -69.1061 0.000806912 -11.7122 -165.229 -3.03207 221.204 
-166.103 -3.03207 223.299 -166.976 -3.03207 225.395 -66.5009 -2.03268 -15.5448 
-67.3743 -2.03268 -13.4496 -68.2477 -2.03268 -11.3544 -69.1211 -2.03268 -9.25912 
-69.9945 -2.03268 -7.16388 -70.868 -2.03268 -5.06864 -165.197 -2.03268 221.217 
-166.071 -2.03268 223.313 -166.944 -2.03268 225.408 -66.4688 -1.03328 -15.5315 
-67.3423 -1.03328 -13.4363 -68.2157 -1.03328 -11.341 -69.0891 -1.03328 -9.24577 
-69.9625 -1.03328 -7.15053 -92.6715 -1.03328 47.3257 -165.165 -1.03328 221.231 
-166.039 -1.03328 223.326 -166.912 -1.03328 225.421 -68.1837 -0.0338793 -11.3277 
-69.0571 -0.0338793 -9.23243 -69.9305 -0.0338793 -7.13718 -162.56 -3.06676 217.398 
-163.434 -3.06676 219.493 -164.307 -3.06676 221.589 -165.18 -3.06676 223.684 
-166.054 -3.06676 225.779 -67.3252 -2.06736 -10.9698 -68.1987 -2.06736 -8.87458 
-69.0721 -2.06736 -6.77934 -69.9455 -2.06736 -4.6841 -70.8189 -2.06736 -2.58886 
-71.6923 -2.06736 -0.493617 -72.5658 -2.06736 1.60162 -74.3126 -2.06736 5.79211 
-164.275 -2.06736 221.602 -165.148 -2.06736 223.697 -166.022 -2.06736 225.792 
-68.1666 -1.06796 -8.86124 -69.0401 -1.06796 -6.766 -69.9135 -1.06796 -4.67075 
-70.7869 -1.06796 -2.57551 -71.6603 -1.06796 -0.480271 -72.5337 -1.06796 1.61497 
-74.2806 -1.06796 5.80545 -162.496 -1.06796 217.425 -164.243 -1.06796 221.615 
-165.116 -1.06796 223.711 -165.99 -1.06796 225.806 -68.1346 -0.0685656 -8.84789 
-69.008 -0.0685656 -6.75265 -69.8815 -0.0685656 -4.65741 -70.7549 -0.0685656 -2.56217 
-71.6283 -0.0685656 -0.466925 -72.5017 -0.0685656 1.62832 -74.2486 -0.0685656 5.8188 
-161.638 -3.10145 217.783 -162.511 -3.10145 219.878 -163.384 -3.10145 221.973 
-164.258 -3.10145 224.068 -165.131 -3.10145 226.164 -69.8965 -2.10205 -2.20432 
-70.7699 -2.10205 -0.109082 -71.6433 -2.10205 1.98616 -77.7572 -2.10205 16.6528 
-149.378 -2.10205 188.463 -150.251 -2.10205 190.558 -161.606 -2.10205 217.796 
-162.479 -2.10205 219.891 -163.352 -2.10205 221.987 -164.226 -2.10205 224.082 
-165.099 -2.10205 226.177 -69.8644 -1.10265 -2.19098 -70.7379 -1.10265 -0.095736 
-71.6113 -1.10265 1.99951 -77.7252 -1.10265 16.6662 -149.346 -1.10265 188.476 
-158.08 -1.10265 209.428 -161.574 -1.10265 217.809 -162.447 -1.10265 219.905 
-163.32 -1.10265 222 -164.194 -1.10265 224.095 -165.067 -1.10265 226.19 
-69.8324 -0.103252 -2.17763 -70.7059 -0.103252 -0.0823899 -71.5793 -0.103252 2.01285 
-72.4527 -0.103252 4.10809 -149.314 -0.103252 188.489 -150.187 -0.103252 190.585 
-164.209 -3.13613 226.548 -92.5564 -2.13673 54.7517 -148.455 -2.13673 188.847 
-149.329 -2.13673 190.942 -160.683 -2.13673 218.181 -161.557 -2.13673 220.276 
-162.43 -2.13673 222.371 -163.303 -2.13673 224.466 -164.177 -2.13673 226.562 
-165.05 -2.13673 228.657 -160.651 -1.13734 218.194 -161.525 -1.13734 220.289 
-162.398 -1.13734 222.384 -163.271 -1.13734 224.48 -164.145 -1.13734 226.575 
-165.018 -1.13734 228.67 -77.6442 -0.137938 19.1593 -95.1126 -0.137938 61.0641 
-148.391 -0.137938 188.874 -149.265 -0.137938 190.969 -160.619 -0.137938 218.207 
-161.493 -0.137938 220.302 -162.366 -0.137938 222.398 -163.239 -0.137938 224.493 
-147.533 -2.17142 189.232 -148.406 -2.17142 191.327 -158.887 -2.17142 216.47 
-159.761 -2.17142 218.565 -160.634 -2.17142 220.66 -161.508 -2.17142 222.756 
-162.381 -2.17142 224.851 -163.254 -2.17142 226.946 -164.128 -2.17142 229.041 
-147.501 -1.17202 189.245 -158.855 -1.17202 216.483 -159.729 -1.17202 218.578 
-160.602 -1.17202 220.674 -161.476 -1.17202 222.769 -162.349 -1.17202 224.864 
-163.222 -1.17202 226.959 -164.096 -1.17202 229.055 -94.1901 -0.172624 61.4487 
-147.469 -0.172624 189.258 -148.342 -0.172624 191.354 -158.823 -0.172624 216.497 
-159.697 -0.172624 218.592 -160.57 -0.172624 220.687 -161.444 -0.172624 222.782 
[...]
POINT_DATA 28510
VECTORS DTMRIFiberOrientation float
0.262857 0.458766 -0.848788 -0.976266 -0.212301 -0.0428031 -0.284023 0.413459 0.865091 
-0.645295 -0.679558 -0.348991 -0.525431 0.801346 -0.28595 -0.465674 -0.831179 0.303793 
-0.976266 -0.212301 -0.0428031 -0.645295 -0.679558 -0.348991 -0.922458 0.0346863 -0.384535 
-0.409431 0.80185 0.435204 -0.749376 -0.598338 -0.283597 -0.665142 -0.743852 0.0653442 
-0.902368 -0.428959 -0.0415478 -0.725405 0.0740391 -0.684329 -0.384349 0.866012 0.319842 
-0.94028 0.294124 0.171364 -0.990593 -0.0148608 -0.136031 -0.849256 0.448195 -0.279079 
-0.381158 -0.386458 -0.839862 -0.944287 0.0469452 0.325759 0.570151 -0.802823 0.174365 
-0.902726 0.418428 0.100016 -0.92787 -0.292267 -0.231596 -0.3641 0.559145 -0.744841 
-0.249298 -0.968085 -0.0257114 -0.318795 -0.947814 0.00434326 -0.814931 -0.0937276 -0.571928 
-0.37972 -0.240564 0.893276 -0.46477 0.473663 0.748086 -0.121738 -0.306376 0.944094 
-0.913576 -0.401085 -0.0671523 -0.108083 -0.558285 -0.822579 0.17311 0.114413 0.978234 
0.692851 0.646791 -0.318777 0.0751459 0.917551 0.390452 -0.318541 0.754862 -0.573337 
-0.245247 0.965167 -0.0911409 -0.0436163 0.961053 0.272901 -0.17465 -0.783751 0.596013 
-0.571386 -0.765374 -0.296176 0.0414136 0.708288 0.704708 -0.128504 -0.909188 0.39606 
-0.510616 0.348772 -0.785894 -0.558289 0.824841 -0.0891628 -0.385838 0.638125 -0.666277 
-0.173972 -0.769482 -0.614518 -0.195012 -0.345875 0.917791 -0.674162 -0.424428 0.604455 
0.399169 0.851438 0.340173 -0.0248918 -0.621679 -0.782876 -0.459764 0.234446 -0.856535 
0.121844 0.183905 -0.975363 -0.505966 0.841958 -0.187362 -0.62444 0.575196 0.528416 
-0.416474 0.404319 -0.814294 -0.0268683 0.937763 0.346234 -0.869294 0.172674 0.463154 
-0.263357 -0.447246 0.85476 -0.324129 0.917335 0.231165 -0.774944 0.0575859 0.629401 
-0.185696 0.963128 0.194681 -0.397046 0.166489 -0.902572 0.073131 0.997306 -0.00577744 
-0.95866 -0.205365 -0.196968 -0.857228 -0.437156 -0.272131 -0.49004 -0.814675 -0.310104 
0.786348 0.514907 -0.341362 -0.95576 -0.215207 0.200523 -0.390046 0.048967 0.919492 
-0.905168 -0.0593381 -0.420891 -0.968906 0.139033 -0.204671 -0.63667 -0.73179 0.243174 
-0.426925 -0.800161 0.42128 -0.149689 -0.337888 0.929206 0.124589 -0.904087 -0.408784 
-0.717131 -0.606688 0.343007 -0.371856 -0.92505 -0.0775006 -0.662967 0.599998 0.447746 
-0.854564 -0.24192 -0.45956 0.425745 -0.80463 -0.413898 -0.5998 -0.691792 -0.402073 
0.0783836 0.996599 0.0254405 -0.769018 0.576322 -0.276522 -0.643259 0.090525 0.760278 
0.587779 0.808255 0.0352132 -0.836119 -0.531111 0.137207 -0.616583 -0.699732 -0.360833 
0.424903 0.718969 -0.550037 -0.449304 -0.863666 -0.228486 -0.322269 0.0292439 -0.946196 
-0.0338691 -0.219281 0.975074 -0.876898 -0.162867 -0.452244 -0.631289 0.631134 -0.450715 
-0.902545 -0.0230631 0.429977 -0.213657 -0.877097 -0.430176 -0.473694 0.272617 -0.837433 
-0.236613 -0.874006 -0.424415 -0.551571 -0.819041 0.157925 -0.721393 0.69188 0.0298959 
-0.0949391 -0.205279 -0.974088 -0.24119 -0.918361 0.313751 -0.408241 -0.808899 -0.423109 
-0.202195 0.421143 -0.88417 -0.67247 0.643881 -0.364966 -0.895798 0.381228 -0.228499 
0.0477702 -0.555803 -0.82994 -0.17873 0.966591 0.18373 -0.805147 -0.382019 0.453652 
-0.250258 -0.896536 -0.365505 -0.797752 0.130415 0.588714 0.0489881 0.984131 0.170547 
-0.637712 -0.257161 -0.726079 0.240659 0.344339 -0.907477 -0.759043 0.118957 -0.64008 
0.00610206 0.969428 -0.245299 -0.816811 -0.515141 -0.259711 0.316884 0.604704 0.730697 
-0.576216 -0.330233 -0.747611 -0.472711 -0.7281 -0.496401 0.47457 0.420566 -0.773245 
-0.398311 0.854838 -0.332566 -0.7972 0.474847 0.372818 -0.265373 -0.299165 0.916557 
-0.177735 0.6846 0.706918 -0.637148 -0.580894 0.506562 0.686667 0.219469 -0.693053 
-0.335792 0.430922 -0.837586 -0.431306 0.877108 -0.211323 0.0934389 0.488198 0.867717 
-0.621901 0.684268 0.380811 0.443201 -0.835843 -0.323943 -0.65792 0.28097 -0.698711 
-0.475015 0.309195 -0.823869 0.560297 0.391402 -0.729981 0.276655 -0.32971 -0.902637 
0.138604 0.0454981 -0.989302 0.229798 -0.261976 -0.937316 -0.533209 -0.749362 -0.392613 
-0.834161 -0.497672 -0.237692 -0.992058 0.0883553 -0.0895174 -0.597963 -0.560724 0.572738 
0.507389 -0.828772 -0.235995 -0.448047 -0.268001 -0.852895 -0.616456 0.701955 0.356709 
-0.674075 0.734085 0.0821037 -0.330452 0.0343824 -0.943196 -0.38863 0.385007 -0.8371 
0.821384 0.450779 -0.349466 -0.627911 0.456693 -0.630206 -0.906829 -0.312223 -0.283158 
-0.377246 -0.902908 0.206015 -0.199177 -0.0280333 0.979562 -0.276377 -0.735036 0.619143 
-0.323019 -0.717346 -0.617311 -0.469543 0.642197 -0.605897 -0.748427 0.641705 0.167545 
-0.908499 0.362404 -0.20807 -0.315891 -0.633704 0.706139 -0.422248 0.523889 -0.739762 
0.155539 -0.290326 -0.944203 -0.086866 0.889663 0.448279 -0.715792 -0.06981 -0.694816 
-0.74601 -0.603262 -0.282034 -0.514599 0.202035 -0.833289 -0.457693 0.298175 -0.837621 
-0.738438 -0.225079 -0.635649 -0.698933 0.0151408 -0.715027 -0.917475 0.226403 -0.32708 
-0.900865 -0.402926 -0.161531 -0.103826 0.167983 -0.980307 -0.0895198 0.773636 -0.627275 
-0.219714 -0.868446 0.44444 -0.195665 0.517599 -0.832951 -0.814979 -0.480207 -0.324361 
-0.26307 0.642849 -0.719402 -0.310796 0.559658 -0.768238 -0.87251 0.134854 -0.469617 
-0.968897 -0.196797 0.150035 -0.247755 -0.82151 0.513554 -0.731986 0.654671 -0.188684 
-0.327442 0.261359 0.908005 -0.353042 0.354425 -0.865878 -0.830639 -0.170632 -0.530022 
-0.782633 -0.614925 -0.0967088 -0.745357 0.0332185 0.665837 -0.965691 0.126024 -0.227067 
-0.132133 -0.99114 -0.0135359 -0.233891 0.0988926 -0.96722 -0.6992 -0.340538 0.628612 
-0.97758 -0.107959 0.180783 -0.492818 -0.711371 -0.50108 -0.567976 0.216677 -0.794011 
-0.341391 -0.315003 0.885565 -0.944061 0.024979 -0.328824 -0.41119 -0.903003 -0.124529 
-0.872806 -0.486245 0.0421305 -0.622414 -0.619937 -0.477786 -0.0404698 0.876305 -0.480054 
-0.215715 -0.880666 0.421775 -0.966953 -0.0281167 -0.253398 -0.918493 -0.214623 -0.332125 
-0.817967 -0.404473 0.409062 -0.982806 -0.163477 -0.0858368 -0.85514 0.188885 -0.482761 
-0.922903 0.223665 0.313407 0.065786 -0.99199 -0.107837 -0.630262 0.426194 -0.648944 
-0.146292 0.947071 -0.285753 -0.3325 -0.547591 0.767847 -0.631087 0.220728 -0.743645 
-0.558757 -0.215534 0.800834 -0.232745 0.0301145 -0.972072 -0.878177 0.257737 -0.40296 
0.928834 0.201884 -0.310662 -0.723551 0.0155406 -0.690096 -0.34217 -0.00589896 0.939619 
0.594666 -0.745182 -0.301789 -0.951749 -0.306826 0.00569272 -0.859875 -0.402549 0.313957 
-0.17892 -0.488131 0.854234 -0.98545 -0.101563 -0.136284 -0.507043 -0.581879 -0.635865 
-0.0920325 -0.77659 0.623248 -0.670921 0.43603 -0.599786 -0.997411 0.0663262 -0.0277908 
-0.957271 0.0888764 0.275196 -0.818015 -0.433867 -0.377639 -0.741355 -0.147222 -0.654767 
0.127939 0.488115 0.863351 0.513362 0.757222 -0.403825 -0.325788 0.79845 -0.5063 
-0.525085 -0.62903 -0.573242 0.31521 0.949016 -0.00340231 -0.590894 0.491827 0.639492 
0.586 0.345977 0.732737 0.636405 0.553285 -0.537461 -0.553702 -0.785067 0.277639 
-0.302844 -0.670829 0.67696 0.118663 0.802691 -0.584471 -0.501116 -0.0387471 -0.864512 
-0.375628 0.7784 -0.502989 -0.00812757 -0.97653 0.215228 -0.111051 0.502093 -0.857654 
0.168733 -0.773686 0.610687 -0.251521 0.399764 -0.881434 -0.271669 -0.849941 0.451438 
-0.570598 0.820739 -0.0283888 -0.581013 0.350603 -0.734507 -0.210052 -0.46705 0.85892 
0.208672 -0.934025 0.289918 0.0315275 0.929134 -0.368395 -0.427667 -0.316251 0.846809 
-0.163824 -0.916603 0.364694 -0.999272 0.00581156 -0.0376928 -0.621111 -0.775858 0.110748 
-0.473677 -0.872107 -0.12272 -0.547869 0.613258 -0.568995 -0.833957 -0.0311021 -0.550952 
-0.384164 0.473708 -0.792476 -0.752745 -0.65747 0.0332764 -0.753411 -0.657547 0.00187859 
-0.700173 -0.272356 0.659985 0.669658 0.613055 -0.419191 -0.30393 -0.74028 0.599677 
-0.779696 -0.00983883 -0.626081 0.238577 -0.952193 0.190811 -0.836688 0.255269 0.484552 
-0.68709 -0.00889336 -0.726518 -0.7816 -0.0362469 -0.622726 -0.517676 0.682139 -0.516428 
-0.563171 -0.826327 0.00467548 -0.688163 -0.198922 0.697755 -0.600131 -0.479559 0.640208 
-0.839851 0.540969 -0.04475 -0.663528 -0.0924825 -0.742413 0.0647345 -0.868335 -0.491735 
0.753929 -0.383777 -0.533204 0.170351 -0.985372 0.00475181 -0.661605 -0.137264 -0.737182 
-0.728111 -0.226677 -0.646894 0.360372 -0.929191 -0.0820777 -0.452288 -0.848917 0.273452 
-0.736385 -0.192273 0.648667 -0.813467 -0.373214 0.446075 -0.816832 0.447232 -0.364374 
-0.0641586 0.653818 0.753927 -0.259733 0.738613 0.622085 0.665611 -0.181792 -0.723819 
-0.00319809 0.999325 -0.0365885 -0.788421 -0.11991 -0.603335 -0.843683 -0.179336 -0.506001 
-0.865923 0.0372676 -0.498788 -0.796988 0.114827 -0.59298 -0.766844 -0.132718 -0.627962 
-0.183364 -0.427151 -0.885393 -0.590681 0.766109 0.253323 -0.491835 -0.27448 -0.826292 
-0.786216 0.595163 -0.166266 -0.467011 0.0307988 0.883715 0.134419 -0.877052 -0.461206 
-0.841968 -0.0575359 -0.536451 -0.834805 -0.168903 -0.523996 -0.795901 -0.122835 -0.592835 
-0.751207 0.124496 -0.648219 -0.891394 -0.0364371 -0.451761 -0.256025 0.644349 0.720601 
-0.607793 0.730054 0.312425 -0.555104 -0.370229 -0.744843 -0.40005 -0.748837 0.528396 
-0.41778 -0.537293 -0.73265 0.751159 -0.357239 -0.555104 -0.558851 -0.704431 0.437563 
-0.937272 -0.110437 -0.330643 -0.733117 -0.414114 -0.53949 -0.874383 0.0822745 -0.478211 
-0.548081 0.387112 -0.741452 -0.533558 0.30742 0.787914 -0.720131 -0.40015 -0.566826 
-0.779999 0.406737 0.475569 -0.929578 -0.132136 -0.344129 -0.410489 0.68958 -0.596639 
-0.845353 0.0612635 -0.530683 0.902353 0.0970229 -0.419936 -0.819593 0.402021 -0.408223 
0.224064 0.177726 0.958232 -0.336311 -0.898782 -0.281222 -0.841254 0.0108023 -0.540532 
-0.865715 -0.21817 -0.450488 -0.757206 -0.137279 -0.638587 -0.628957 0.10329 -0.770548 
0.752393 0.581624 0.309223 0.375563 0.906664 0.19213 -0.879875 0.0147227 -0.474977 
-0.970141 -0.228874 -0.0802702 -0.642986 -0.647704 -0.408716 -0.566174 0.194554 -0.800997 
-0.489383 -0.680106 0.545857 -0.577537 0.665719 -0.472513 -0.814122 0.552272 -0.179448 
-0.702124 -0.494953 -0.511902 -0.0897834 0.734195 -0.672976 -0.512097 -0.856975 -0.0578891 
-0.28724 0.0509931 -0.9565 -0.928196 0.160088 0.335893 -0.45995 -0.887317 0.0333694 
-0.594899 0.777757 0.20295 -0.608562 -0.523955 -0.595922 -0.24571 -0.871466 -0.42447 
-0.801632 -0.183431 -0.568981 -0.996102 0.0221984 -0.0853689 -0.0966542 -0.192001 0.976624 
-0.574467 -0.303784 -0.760068 -0.469474 -0.0976411 -0.877531 -0.57593 -0.111129 -0.809911 
-0.608046 -0.790163 -0.0769546 -0.368091 -0.568314 -0.735886 -0.536418 -0.574024 -0.61867 
-0.928388 -0.366639 -0.0605944 -0.587092 -0.340159 -0.734585 -0.403514 -0.866739 -0.293157 
-0.395879 0.138227 -0.90784 -0.880131 -0.252573 -0.401965 -0.728968 -0.275161 0.626811 
-0.825923 -0.243734 -0.508374 -0.811465 -0.584311 0.0102532 -0.515503 -0.601397 -0.610392 
-0.397519 -0.670065 -0.62689 -0.811764 -0.577063 0.0896557 -0.684655 -0.714192 -0.145525 
-0.421217 -0.906796 -0.0172342 -0.300869 0.466123 -0.83199 -0.897043 -0.362654 -0.252578 
0.177118 -0.957744 -0.22662 0.568603 0.417809 -0.708608 0.267645 0.899836 -0.344474 
-0.315211 -0.933229 -0.172411 0.149228 0.312823 -0.938015 -0.779502 -0.361275 0.511719 
-0.422804 -0.844507 0.328702 -0.301791 -0.434222 -0.848748 -0.536761 -0.302122 -0.787788 
-0.769727 -0.27323 -0.576945 -0.0624009 0.45898 -0.886252 -0.192252 -0.227803 0.954539 
-0.533747 0.312456 0.785803 -0.574074 -0.713724 -0.401295 -0.68623 -0.419959 -0.593904 
-0.896207 -0.441639 -0.0420495 0.0890842 -0.628328 0.772831 0.447361 0.887479 0.110676 
-0.502275 -0.238394 -0.831197 -0.830828 -0.066142 -0.552585 -0.701406 -0.227794 -0.675381 
-0.920873 0.372133 -0.116232 -0.335552 -0.346756 -0.87588 -0.789371 -0.508561 -0.343889 
-0.603499 -0.740951 -0.294587 -0.773557 -0.497017 -0.393171 -0.757235 -0.500438 -0.41971 
-0.525487 -0.830764 -0.183561 -0.614927 -0.317182 -0.721984 -0.700586 -0.498062 -0.510992 
-0.914667 0.404011 0.0126555 0.161042 0.397273 -0.90346 -0.204392 -0.949211 -0.239213 
0.501445 0.712691 -0.490536 -0.52719 0.849117 0.0327379 -0.366023 -0.596043 0.714675 
-0.57952 -0.174936 -0.795961 -0.660659 -0.0377163 -0.749738 -0.510349 -0.82482 0.243344 
-0.816604 0.556796 -0.152108 -0.808856 0.300032 0.5057 -0.341334 -0.927767 -0.150795 
-0.87407 -0.459558 -0.157505 0.200478 0.973422 0.110715 -0.501132 -0.86509 0.0220268 
-0.597695 -0.249476 -0.76192 -0.664744 0.0478153 -0.74554 -0.413318 -0.837713 0.356939 
-0.662658 0.741384 -0.10599 -0.2761 -0.466804 -0.840156 -0.384982 -0.907829 -0.166237 
-0.903459 -0.28335 -0.321674 0.379072 0.769501 -0.513978 -0.227309 -0.458583 -0.859088 
-0.500569 0.194698 -0.843518 -0.667161 -0.386451 -0.63683 -0.714932 -0.343077 -0.609237 
-0.712842 -0.111969 -0.692329 -0.779314 -0.161113 -0.605567 0.241425 0.385352 -0.890628 
-0.568508 -0.797112 -0.203498 -0.569513 -0.801297 0.183244 -0.466908 0.00499072 -0.884292 
-0.411768 0.0206197 -0.911055 -0.618608 -0.779942 0.0949453 0.436353 -0.521705 -0.733089 
-0.649126 -0.7433 -0.161677 0.0366992 0.989068 0.14282 -0.462726 0.182221 -0.867572 
-0.713152 -0.464433 -0.525087 -0.575652 -0.176183 -0.798489 -0.599171 -0.13612 -0.788965 
-0.928202 -0.35121 -0.122849 -0.296952 -0.366582 -0.881724 -0.601213 -0.749012 -0.278433 
-0.948547 -0.262091 -0.177671 -0.0974005 0.185874 0.977734 -0.0452931 -0.528329 0.847831 
-0.704407 -0.120261 -0.699535 -0.667139 -0.272254 -0.693399 -0.735064 -0.281676 -0.616717 
-0.599427 -0.118601 -0.791594 -0.216626 -0.851174 -0.478096 -0.282282 0.285925 -0.915731 
-0.461565 -0.880313 -0.109579 -0.545937 -0.809231 -0.217021 -0.035461 -0.429716 0.902268 
-0.148142 0.172244 -0.973851 -0.523331 -0.382989 -0.761212 -0.624293 -0.778972 -0.0588292 
-0.309352 0.0373072 -0.950215 0.0289865 -0.348956 -0.936691 -0.979382 -0.0825386 0.184388 
-0.925081 -0.367129 0.0971652 -0.621447 -0.72939 -0.285996 -0.226626 -0.841089 0.491132 
-0.643784 -0.701912 -0.304734 -0.493545 -0.149704 -0.856739 -0.63391 -0.466459 -0.616907 
-0.718832 -0.52583 -0.454734 -0.329594 -0.868103 -0.371168 -0.360368 -0.347949 -0.865486 
-0.97575 0.0144278 0.218411 -0.588144 -0.581738 -0.561843 -0.538313 -0.220745 -0.813321 
-0.922412 -0.382696 0.0519598 -0.67063 -0.498539 -0.549286 -0.612465 -0.284685 -0.737456 
-0.691124 -0.525287 -0.496408 -0.696731 -0.276693 -0.661821 -0.602058 -0.764282 -0.231083 
0.448689 -0.764549 -0.462756 -0.81896 -0.0346889 -0.572801 -0.0122152 0.135912 -0.990646 
-0.0677878 0.934242 -0.350137 -0.266246 -0.938031 -0.221838 -0.664832 -0.600539 -0.444243 
-0.621518 -0.172304 -0.764217 -0.448725 -0.168952 -0.877554 -0.684057 -0.54504 -0.484767 
-0.716976 0.107249 -0.688798 -0.784124 -0.519464 0.339569 -0.940022 0.339205 0.0360437 
-0.302056 -0.614566 -0.728746 -0.473643 -0.368223 -0.800046 -0.906942 -0.41954 -0.0379764 
-0.63279 -0.252743 -0.731914 -0.667481 -0.245746 -0.702907 -0.564753 -0.500546 -0.656131 
-0.704861 -0.523239 -0.478949 -0.521734 0.715648 0.464371 -0.912778 0.396573 -0.0978097 
-0.469916 -0.164141 -0.867316 -0.837546 -0.209826 -0.504469 -0.650145 -0.572815 -0.499194 
-0.693287 -0.45749 -0.556828 -0.673989 -0.418405 -0.608831 -0.646165 -0.513613 -0.564511 
-0.656019 -0.356098 -0.665457 0.118311 -0.824222 0.553769 -0.0575623 0.00972613 -0.998295 
-0.444484 0.532647 -0.720223 -0.599129 -0.0174523 -0.800462 -0.480596 -0.141503 -0.86545 
-0.752086 -0.296632 -0.588537 -0.918171 -0.237305 -0.317251 -0.962071 0.144356 0.231476 
-0.897522 0.323005 0.300203 -0.654085 0.00530358 -0.756402 -0.69618 -0.168442 -0.697825 
0.550676 0.544263 0.632877 -0.73206 -0.158562 -0.662531 -0.171997 0.0769863 -0.982084 
-0.985871 0.120338 -0.116518 -0.990669 0.0819437 0.108902 0.858073 0.475668 0.193522 
-0.757848 -0.630308 -0.16846 -0.714406 -0.392412 -0.579342 -0.62256 -0.673561 -0.398414 
-0.64708 -0.016527 -0.762243 0.132354 0.381897 -0.914679 -0.0855457 0.953404 0.289315 
-0.946314 -0.171532 0.273982 -0.945279 -0.261631 -0.194927 -0.22296 -0.0107069 -0.974769 
-0.574367 -0.148319 -0.805049 -0.526606 -0.370488 -0.76513 -0.715691 -0.211199 -0.665718 
-0.728398 -0.284761 -0.623176 -0.218365 0.804291 -0.55266 -0.856737 -0.356319 -0.372878 
-0.949968 -0.0980651 -0.296552 -0.265097 -0.356334 -0.895963 -0.545941 -0.29074 -0.78576 
0.251827 0.188263 -0.949284 -0.727422 -0.327398 -0.603049 0.602942 0.585157 0.542265 
-0.666794 -0.104808 -0.737836 -0.374723 -0.273751 -0.885801 -0.0204693 -0.975815 -0.217637 
-0.509523 0.561707 -0.651822 -0.952167 -0.154681 0.263538 -0.467933 -0.0593907 0.881766 
-0.305672 0.427252 -0.850894 -0.819405 -0.422661 -0.387212 -0.762272 -0.392734 -0.514491 
-0.695463 -0.619098 -0.364759 -0.631995 -0.0253508 -0.774558 0.147413 -0.273849 0.950409 
-0.397361 0.831936 0.38728 0.566155 0.492459 0.661024 -0.728867 -0.315492 -0.607634 
-0.63507 -0.511384 -0.578941 -0.731323 0.0240991 -0.681606 -0.159801 -0.47274 -0.866591 
-0.648537 -0.286913 -0.70504 -0.564837 -0.352602 -0.746077 -0.652723 -0.376972 -0.657149 
0.561433 0.493605 0.664189 -0.333837 -0.524327 0.783348 -0.940624 0.0280664 -0.338287 
-0.404907 -0.705386 0.581791 -0.999479 0.011506 -0.0301644 -0.964306 -0.236536 -0.119018 
-0.992113 -0.113105 -0.0540356 -0.728628 -0.190711 -0.657822 -0.664863 -0.173897 -0.726442 
-0.56736 -0.36222 -0.739526 -0.605195 -0.451747 -0.655487 0.617295 0.549567 0.562959 
0.262842 0.498118 -0.826312 0.298291 -0.936017 0.186799 -0.93129 0.0139422 -0.364011 
0.181188 -0.241033 -0.953454 -0.263211 -0.484672 -0.834154 -0.807518 0.579835 -0.108195 
0.107604 -0.0866591 -0.99041 -0.202017 -0.435131 0.877411 -0.616915 -0.25755 -0.743696 
-0.638543 -0.475822 -0.604861 -0.665196 -0.03311 -0.745934 0.212378 -0.954359 -0.209987 
-0.330523 -0.418972 -0.845705 -0.95036 -0.299431 0.0845979 0.0284402 -0.537848 0.842562 
-0.540651 0.11123 0.833861 0.0526284 0.344803 -0.937198 -0.166343 0.286715 -0.943464 
0.586958 0.356635 0.726837 -0.70543 -0.350574 -0.616009 -0.625119 -0.139753 -0.767916 
0.19519 -0.273652 -0.941815 -0.696296 0.349977 -0.626648 -0.894475 -0.420639 0.151587 
-0.67086 -0.0155633 -0.741421 -0.0425819 0.32613 -0.944366 -0.306549 0.121109 -0.944119 
-0.615375 -0.57584 -0.538258 -0.735212 -0.334181 -0.589735 -0.467818 0.0468496 -0.882582 
-0.658112 -0.496529 -0.565992 -0.859967 -0.0529062 -0.5076 -0.120946 -0.183627 -0.975527 
-0.671164 0.178747 -0.719436 -0.0236461 0.28086 -0.959457 0.12737 0.0345257 -0.991254 
0.101887 0.506851 -0.855991 -0.156161 0.418597 -0.894645 -0.605494 -0.335517 -0.721668 
-0.661079 -0.336623 -0.670566 -5.10726e-05 0.814105 -0.580718 0.467553 0.568899 -0.676571 
-0.361668 -0.885212 -0.292568 -0.956513 0.136874 -0.257581 0.349378 0.550924 -0.757903 
-0.769141 -0.151603 -0.620837 -0.0992466 0.367517 -0.924706 -0.103639 0.415008 -0.903895 
-0.708548 -0.276089 -0.649411 -0.650206 -0.24085 -0.720571 -0.694991 -0.67854 0.237844 
-0.367196 -0.929533 -0.0337112 -0.624109 0.347718 -0.6997 -0.176045 0.440222 -0.880462 
-0.941033 0.00645701 0.338254 -0.298554 -0.730354 0.614368 -0.617739 0.0204148 -0.786118 
0.156338 -0.725784 0.669922 -0.027737 0.874634 -0.483989 -0.105061 0.315662 -0.943037 
-0.248847 0.284968 -0.925672 -0.218666 0.410703 -0.88516 -0.72684 -0.237996 -0.644253 
-0.704032 -0.159269 -0.692079 -0.64629 -0.506705 -0.570578 -0.0898621 0.86234 -0.498292 
-0.146624 0.629681 -0.762891 -0.251 -0.109167 -0.961812 -0.80388 -0.0292609 -0.594072 
-0.486561 -0.178164 -0.855287 -0.144052 -0.341079 -0.928932 -0.966393 0.216514 0.138589 
-0.46562 -0.741121 -0.483671 -0.460295 -0.128692 0.878389 -0.112589 0.509075 -0.853327 
-0.240709 0.455586 -0.85703 -0.526493 0.0822451 -0.846192 -0.6465 -0.354479 -0.67556 
-0.873191 -0.27764 -0.400567 -0.338337 -0.353626 -0.872053 -0.681791 -0.502096 -0.532035 
0.0628408 0.346838 -0.935817 -0.960441 -0.111417 -0.255226 -0.252987 0.398922 -0.881396 
-0.156167 0.464609 -0.871636 -0.657807 0.0143735 -0.753049 -0.713017 -0.247488 -0.656015 
-0.79068 -0.607329 -0.077309 -0.641944 0.0750839 -0.763066 -0.879412 -0.253454 -0.402983 
-0.712647 -0.515169 -0.476168 -0.591897 -0.804177 -0.0543845 -0.482738 -0.0116946 -0.875687 