# vtk DataFile Version 4.0
vtk output
ASCII
DATASET UNSTRUCTURED_GRID
POINTS 32410 double
-104.595 -107.518 32.5178 -105.405 -105.519 34.6397 -90.1725 -93.5264 -0.819229 
-75.7175 -78.5354 -34.1429 -103.673 -107.553 32.9023 -103.609 -105.554 32.929 
-113.456 -114.583 58.3363 -112.55 -113.584 56.2544 -128.863 -133.606 96.1816 
-127.926 -131.608 94.1131 -130.546 -131.608 100.399 -129.623 -131.642 100.783 
-110.607 -113.722 61.9831 -125.855 -127.749 99.8951 -99.725 -102.764 39.4667 
-77.9625 -77.7788 -10.4854 -77.0571 -76.7794 -12.5673 -72.6579 -75.78 -23.0301 
-72.6259 -74.7806 -23.0168 -72.5939 -73.7812 -23.0035 -72.5619 -72.7818 -22.9901 
-73.4353 -72.7818 -20.8949 -128.522 -130.782 108.621 -80.6938 -82.8105 -1.78662 
-79.7884 -81.8111 -3.86852 -79.7563 -80.8117 -3.85517 -76.2307 -79.8123 -12.2228 
-77.1041 -79.8123 -10.1276 -77.9775 -79.8123 -8.03231 -79.7243 -79.8123 -3.84183 
-76.1986 -78.8129 -12.2094 -77.0721 -78.8129 -10.1142 -78.8189 -78.8129 -5.92372 
-74.4198 -77.8135 -16.3866 -76.1666 -77.8135 -12.1961 -77.9135 -77.8135 -8.00562 
-73.5143 -76.8141 -18.4685 -74.3878 -76.8141 -16.3732 -76.1346 -76.8141 -12.1828 
-77.008 -76.8141 -10.0875 -72.6089 -75.8147 -20.5504 -73.4823 -75.8147 -18.4551 
-74.3557 -75.8147 -16.3599 -76.1026 -75.8147 -12.1694 -72.5769 -74.8153 -20.537 
-73.4503 -74.8153 -18.4418 -74.3237 -74.8153 -16.3465 -70.798 -73.8159 -24.7142 
-72.5449 -73.8159 -20.5237 -73.4183 -73.8159 -18.4284 -74.2917 -73.8159 -16.3332 
-72.5129 -72.8165 -20.5103 -72.4808 -71.8171 -20.497 -98.7215 -101.834 42.3444 
-100.468 -101.834 46.5349 -84.2345 -85.8434 9.03408 -81.5822 -84.844 2.7617 
-84.2025 -84.844 9.04743 -82.4236 -83.8446 4.87029 -84.1705 -83.8446 9.06077 
-80.6448 -82.8452 0.693154 -81.5182 -82.8452 2.7884 -82.3916 -82.8452 4.88364 
-83.265 -82.8452 6.97888 -78.8659 -81.8458 -3.48398 -81.4862 -81.8458 2.80174 
-77.9605 -80.8464 -5.56588 -78.8339 -80.8464 -3.47064 -76.1816 -79.847 -9.74301 
-77.055 -79.847 -7.64777 -77.9285 -79.847 -5.55253 -78.8019 -79.847 -3.45729 
-79.6753 -79.847 -1.36205 -75.2762 -78.8476 -11.8249 -76.1496 -78.8476 -9.72967 
-77.023 -78.8476 -7.63443 -77.8964 -78.8476 -5.53919 -78.7699 -78.8476 -3.44394 
-74.3707 -77.8482 -13.9068 -75.2442 -77.8482 -11.8116 -76.1176 -77.8482 -9.71632 
-76.991 -77.8482 -7.62108 -77.8644 -77.8482 -5.52584 -73.4653 -76.8488 -15.9887 
-74.3387 -76.8488 -13.8935 -75.2121 -76.8488 -11.7982 -76.0856 -76.8488 -9.70298 
-76.959 -76.8488 -7.60774 -72.5599 -75.8494 -18.0706 -73.4333 -75.8494 -15.9754 
-74.3067 -75.8494 -13.8801 -75.1801 -75.8494 -11.7849 -76.0535 -75.8494 -9.68963 
-71.6544 -74.85 -20.1525 -72.5279 -74.85 -18.0573 -73.4013 -74.85 -15.962 
-74.2747 -74.85 -13.8668 -75.1481 -74.85 -11.7715 -70.749 -73.8506 -22.2344 
-71.6224 -73.8506 -20.1391 -72.4958 -73.8506 -18.0439 -73.3693 -73.8506 -15.9487 
-74.2427 -73.8506 -13.8534 -70.717 -72.8512 -22.221 -71.5904 -72.8512 -20.1258 
-72.4638 -72.8512 -18.0306 -73.3372 -72.8512 -15.9353 -70.685 -71.8518 -22.2077 
-71.5584 -71.8518 -20.1125 -72.4318 -71.8518 -18.0172 -70.6529 -70.8524 -22.1943 
-71.5264 -70.8524 -20.0991 -69.7475 -69.853 -24.2762 -67.0952 -68.8536 -30.5486 
-67.0632 -67.8542 -30.5353 -67.9366 -67.8542 -28.44 -67.0312 -66.8548 -30.5219 
-117.655 -121.856 88.5573 -115.748 -116.859 84.4336 -105.916 -109.864 61.4793 
-99.5779 -102.868 46.9061 -100.451 -102.868 49.0013 -97.799 -101.868 42.7289 
-98.6724 -101.868 44.8242 -99.5459 -101.868 46.9194 -96.8936 -100.869 40.647 
-97.767 -100.869 42.7423 -98.6404 -100.869 44.8375 -99.5138 -100.869 46.9328 
-99.4818 -99.8696 46.9461 -98.5764 -98.8702 44.8642 -97.671 -97.8708 42.7823 
-83.312 -85.8781 9.41862 -81.5332 -84.8787 5.24148 -82.4066 -84.8787 7.33672 
-83.28 -84.8787 9.43196 -84.1534 -84.8787 11.5272 -80.6277 -83.8793 3.15958 
-81.5012 -83.8793 5.25483 -82.3746 -83.8793 7.35007 -83.248 -83.8793 9.44531 
-84.1214 -83.8793 11.5405 -79.7223 -82.8799 1.07769 -80.5957 -82.8799 3.17293 
-81.4691 -82.8799 5.26817 -82.3426 -82.8799 7.36341 -83.216 -82.8799 9.45865 
-78.8169 -81.8805 -1.00421 -79.6903 -81.8805 1.09104 -80.5637 -81.8805 3.18628 
-81.4371 -81.8805 5.28152 -82.3106 -81.8805 7.37676 -77.9114 -80.8811 -3.0861 
-78.7849 -80.8811 -0.99086 -79.6583 -80.8811 1.10438 -80.5317 -80.8811 3.19962 
-77.006 -79.8817 -5.168 -77.8794 -79.8817 -3.07276 -78.7528 -79.8817 -0.977514 
-79.6263 -79.8817 1.11773 -75.2271 -78.8823 -9.34513 -76.1006 -78.8823 -7.24989 
-76.974 -78.8823 -5.15465 -77.8474 -78.8823 -3.05941 -78.7208 -78.8823 -0.964168 
-74.3217 -77.8829 -11.427 -75.1951 -77.8829 -9.33179 -76.0685 -77.8829 -7.23655 
-76.942 -77.8829 -5.1413 -77.8154 -77.8829 -3.04606 -73.4163 -76.8835 -13.5089 
-74.2897 -76.8835 -11.4137 -75.1631 -76.8835 -9.31844 -76.0365 -76.8835 -7.2232 
-76.9099 -76.8835 -5.12796 -72.5108 -75.8841 -15.5908 -73.3843 -75.8841 -13.4956 
-74.2577 -75.8841 -11.4003 -75.1311 -75.8841 -9.3051 -76.0045 -75.8841 -7.20985 
-71.6054 -74.8847 -17.6727 -72.4788 -74.8847 -15.5775 -73.3522 -74.8847 -13.4822 
-74.2257 -74.8847 -11.387 -75.0991 -74.8847 -9.29175 -70.7 -73.8853 -19.7546 
-71.5734 -73.8853 -17.6594 -72.4468 -73.8853 -15.5641 -73.3202 -73.8853 -13.4689 
-74.1936 -73.8853 -11.3736 -69.7945 -72.8859 -21.8365 -70.6679 -72.8859 -19.7413 
-71.5414 -72.8859 -17.646 -72.4148 -72.8859 -15.5508 -73.2882 -72.8859 -13.4555 
-68.8891 -71.8865 -23.9184 -69.7625 -71.8865 -21.8232 -70.6359 -71.8865 -19.7279 
-71.5093 -71.8865 -17.6327 -72.3828 -71.8865 -15.5374 -68.8571 -70.8871 -23.9051 
-69.7305 -70.8871 -21.8098 -70.6039 -70.8871 -19.7146 -71.4773 -70.8871 -17.6193 
-67.0782 -69.8877 -28.0822 -68.8251 -69.8877 -23.8917 -69.6985 -69.8877 -21.7965 
-70.5719 -69.8877 -19.7012 -66.1728 -68.8883 -30.1641 -67.0462 -68.8883 -28.0688 
-67.9196 -68.8883 -25.9736 -68.793 -68.8883 -23.8784 -66.1408 -67.8889 -30.1507 
-67.0142 -67.8889 -28.0555 -67.8876 -67.8889 -25.9603 -66.1087 -66.8895 -30.1374 
-66.9822 -66.8895 -28.0422 -66.0767 -65.8901 -30.124 -137.461 -141.879 136.865 
-125.69 -128.887 109.801 -111.203 -112.897 76.4905 -99.5288 -102.903 49.3859 
-98.6234 -101.903 47.304 -99.4968 -101.903 49.3992 -97.718 -100.904 45.2221 
-98.5914 -100.904 47.3173 -95.9391 -99.9043 41.0449 -97.6859 -99.9043 45.2354 
-98.5594 -99.9043 47.3307 -99.4328 -99.9043 49.4259 -95.9071 -98.9049 41.0583 
-97.6539 -98.9049 45.2488 -96.7485 -97.9055 43.1669 -96.7165 -96.9061 43.1802 
-93.1908 -95.9067 34.8126 -82.3896 -85.9128 9.80315 -83.263 -85.9128 11.8984 
-84.1364 -85.9128 13.9936 -85.0098 -85.9128 16.0889 -85.8833 -85.9128 18.1841 
-81.4841 -84.9134 7.72126 -82.3576 -84.9134 9.8165 -83.231 -84.9134 11.9117 
-84.1044 -84.9134 14.007 -84.9778 -84.9134 16.1022 -80.5787 -83.914 5.63936 
-81.4521 -83.914 7.7346 -82.3255 -83.914 9.82984 -83.199 -83.914 11.9251 
-84.0724 -83.914 14.0203 -79.6733 -82.9146 3.55747 -80.5467 -82.9146 5.65271 
-81.4201 -82.9146 7.74795 -82.2935 -82.9146 9.84319 -83.1669 -82.9146 11.9384 
-78.7678 -81.9152 1.47557 -79.6413 -81.9152 3.57081 -80.5147 -81.9152 5.66605 
-81.3881 -81.9152 7.76129 -82.2615 -81.9152 9.85654 -77.8624 -80.9158 -0.606325 
-78.7358 -80.9158 1.48892 -79.6092 -80.9158 3.58416 -80.4827 -80.9158 5.6794 
-81.3561 -80.9158 7.77464 -76.957 -79.9164 -2.68822 -77.8304 -79.9164 -0.592979 
-78.7038 -79.9164 1.50226 -79.5772 -79.9164 3.5975 -76.0515 -78.917 -4.77012 
-76.9249 -78.917 -2.67487 -77.7984 -78.917 -0.579633 -78.6718 -78.917 1.51561 
-75.1461 -77.9176 -6.85201 -76.0195 -77.9176 -4.75677 -76.8929 -77.9176 -2.66153 
-77.7663 -77.9176 -0.566287 -73.3672 -76.9182 -11.0291 -74.2406 -76.9182 -8.93391 
-75.1141 -76.9182 -6.83866 -75.9875 -76.9182 -4.74342 -76.8609 -76.9182 -2.64818 
-72.4618 -75.9188 -13.111 -73.3352 -75.9188 -11.0158 -74.2086 -75.9188 -8.92056 
-75.0821 -75.9188 -6.82532 -75.9555 -75.9188 -4.73008 -71.5564 -74.9194 -15.1929 
-72.4298 -74.9194 -13.0977 -73.3032 -74.9194 -11.0025 -74.1766 -74.9194 -8.90721 
-75.05 -74.9194 -6.81197 -70.6509 -73.92 -17.2748 -71.5243 -73.92 -15.1796 
-72.3978 -73.92 -13.0844 -73.2712 -73.92 -10.9891 -74.1446 -73.92 -8.89387 
-69.7455 -72.9206 -19.3567 -70.6189 -72.9206 -17.2615 -71.4923 -72.9206 -15.1662 
-72.3657 -72.9206 -13.071 -73.2392 -72.9206 -10.9758 -68.84 -71.9212 -21.4386 
-69.7135 -71.9212 -19.3434 -70.5869 -71.9212 -17.2481 -71.4603 -71.9212 -15.1529 
-72.3337 -71.9212 -13.0577 -67.9346 -70.9218 -23.5205 -68.808 -70.9218 -21.4253 
-69.6815 -70.9218 -19.33 -70.5549 -70.9218 -17.2348 -71.4283 -70.9218 -15.1396 
-67.0292 -69.9224 -25.6024 -67.9026 -69.9224 -23.5072 -68.776 -69.9224 -21.4119 
-69.6494 -69.9224 -19.3167 -70.5229 -69.9224 -17.2214 -66.1237 -68.923 -27.6843 
-66.9972 -68.923 -25.5891 -67.8706 -68.923 -23.4938 -68.744 -68.923 -21.3986 
-69.6174 -68.923 -19.3033 -65.2183 -67.9236 -29.7662 -66.0917 -67.9236 -27.671 
-66.9651 -67.9236 -25.5757 -67.8386 -67.9236 -23.4805 -65.1863 -66.9242 -29.7529 
-66.0597 -66.9242 -27.6576 -66.9331 -66.9242 -25.5624 -65.1543 -65.9248 -29.7395 
-66.0277 -65.9248 -27.6443 -65.1223 -64.9254 -29.7262 -135.601 -139.915 135.181 
-124.768 -128.922 110.185 -123.863 -127.922 108.103 -124.736 -127.922 110.199 
-112.028 -112.931 81.0655 -98.4783 -98.9396 49.8238 -97.5729 -97.9402 47.7419 
-93.0777 -93.9426 37.3191 -93.9511 -93.9426 39.4143 -86.7717 -87.9462 22.7324 
-82.3405 -85.9474 12.2829 -83.214 -85.9474 14.3782 -84.0874 -85.9474 16.4734 
-85.8342 -85.9474 20.6639 -81.4351 -84.948 10.201 -82.3085 -84.948 12.2963 
-83.1819 -84.948 14.3915 -84.0554 -84.948 16.4868 -84.9288 -84.948 18.582 
-80.5297 -83.9486 8.11914 -81.4031 -83.9486 10.2144 -82.2765 -83.9486 12.3096 
-83.1499 -83.9486 14.4049 -84.0233 -83.9486 16.5001 -79.6242 -82.9492 6.03724 
-80.4976 -82.9492 8.13248 -81.3711 -82.9492 10.2277 -82.2445 -82.9492 12.323 
-83.1179 -82.9492 14.4182 -78.7188 -81.9498 3.95535 -79.5922 -81.9498 6.05059 
-80.4656 -81.9498 8.14583 -81.3391 -81.9498 10.2411 -82.2125 -81.9498 12.3363 
-77.8134 -80.9505 1.87345 -78.6868 -80.9505 3.96869 -79.5602 -80.9505 6.06393 
-80.4336 -80.9505 8.15918 -81.307 -80.9505 10.2544 -76.9079 -79.9511 -0.208444 
[...]
POINT_DATA 32410
VECTORS DTMRIFiberOrientation float
-0.41267 -0.278973 -0.867109 0.123826 0.589194 -0.798447 -0.132287 -0.835224 -0.533761 
-0.826443 -0.00704373 -0.562976 -0.41267 -0.278973 -0.867109 0.323025 -0.606166 -0.726786 
-0.446064 0.791482 -0.417831 -0.92395 -0.0261841 0.381616 -0.978024 0.0231976 0.207195 
-0.109591 0.534549 -0.838002 -0.757105 0.0292256 -0.652639 -0.598628 0.161381 0.784603 
-0.268754 -0.29017 -0.918462 -0.658101 0.300953 -0.690167 -0.505419 0.640302 0.578417 
-0.428528 0.473022 0.769814 -0.0325013 -0.34802 0.936923 -0.800028 0.241345 -0.549279 
-0.514969 0.647152 -0.56214 0.123989 0.887548 0.443718 -0.0411173 -0.844388 0.534152 
-0.623469 0.600589 -0.500579 0.0234765 -0.480091 0.876905 -0.0632094 0.291983 -0.954332 
-0.923128 0.301692 0.238361 -0.974472 0.200437 0.101142 -0.936989 -0.0754936 0.341104 
-0.94469 -0.162378 0.284946 -0.723296 0.654151 0.221198 -0.969262 0.0432294 -0.242201 
-0.742249 -0.573695 0.346324 -0.848809 0.0349964 0.527541 -0.11046 0.992325 -0.0555845 
-0.854237 0.483462 0.191165 -0.338679 0.208448 -0.917522 -0.783873 -0.0212856 -0.620557 
0.244936 -0.934578 0.258011 -0.467111 0.667466 0.579911 0.0220479 0.993713 0.109762 
-0.150179 -0.848361 -0.507672 0.159464 0.962747 -0.218378 -0.556985 -0.321586 0.765735 
-0.123261 0.947028 0.296555 -0.400318 -0.908213 0.122045 -0.267184 -0.9636 -0.00937575 
-0.384506 -0.128477 0.914138 -0.0620422 0.962651 0.263543 -0.558125 0.824102 0.0967059 
0.227364 0.959296 0.167502 0.191777 0.978026 -0.0817747 0.0841813 0.961429 -0.261853 
0.396144 0.913902 0.088622 -0.226124 -0.790702 0.56891 -0.602898 0.572391 0.555772 
-0.734381 -0.339122 -0.587946 -0.478129 -0.43757 0.761528 -0.291919 -0.16576 -0.94197 
-0.262662 -0.492481 0.829742 -0.299789 0.614483 0.729751 -0.28832 0.270173 -0.918629 
-0.508637 -0.35073 0.786306 -0.0225955 -0.555637 0.831118 -0.179578 0.321533 0.929714 
0.547813 0.603253 -0.579643 -0.984736 -0.113637 0.131837 -0.524175 -0.281348 0.803794 
-0.695755 -0.500423 0.515268 -0.792241 -0.488291 -0.36596 -0.00833089 -0.951 -0.309079 
-0.0781652 -0.932563 0.352442 -0.144552 0.556468 -0.818198 -0.678655 -0.70686 -0.199442 
-0.181855 -0.97978 -0.0834322 0.117401 -0.963943 0.23881 0.0860137 0.886647 0.454377 
-0.142308 -0.877003 0.458927 -0.353126 0.868959 -0.346715 0.18266 0.884532 -0.429229 
-0.0323347 -0.929127 -0.368345 0.432302 -0.830565 -0.351109 -0.428605 -0.886036 -0.176742 
-0.218155 -0.975404 0.0315623 -0.607089 0.776735 -0.167707 0.252102 -0.824807 -0.506101 
-0.00737588 0.960098 0.279567 0.0148433 -0.999473 -0.028862 -0.214099 -0.948686 -0.232713 
0.0311375 -0.999282 0.0215861 -0.410966 -0.903181 -0.123983 0.048964 -0.997538 -0.050201 
0.0965546 0.634154 0.767154 -0.165884 0.971446 -0.169631 -0.195247 -0.877223 -0.438586 
-0.303249 -0.93522 -0.182766 -0.2925 -0.774026 -0.56154 -0.137227 -0.986882 -0.085045 
0.210368 -0.974244 -0.0812013 -0.256238 0.96437 0.0658166 -0.183021 -0.97163 0.149795 
-0.204987 -0.96445 -0.166781 -0.306379 -0.946121 0.104816 -0.0755608 -0.965959 -0.247413 
0.423387 -0.902877 -0.0745468 -0.110761 -0.96142 0.251799 0.0808293 0.964059 0.253096 
0.276384 0.960502 -0.0323708 -0.825525 -0.348618 -0.443818 0.335999 0.839401 -0.427212 
-0.144609 -0.98571 0.0863898 0.266419 0.94945 0.166029 -0.275326 -0.862698 0.424202 
0.0863805 -0.940999 0.327199 -0.16542 -0.974137 0.153926 -0.0284742 0.782831 0.621582 
-0.466277 0.1779 0.866566 -0.677592 0.725886 0.118148 -0.266446 -0.319244 -0.909445 
-0.931938 0.311718 0.185267 -0.740685 0.649869 0.170456 -0.973579 -0.220599 0.0589951 
0.0787361 0.813507 -0.576201 -0.216793 -0.975652 0.0332412 0.657886 -0.516828 -0.547791 
-0.648121 0.745145 0.157158 -0.894664 -0.385188 -0.226291 -0.607074 -0.774339 -0.178494 
-0.902651 0.110467 -0.415955 -0.932432 -0.157007 -0.325452 -0.783665 0.607598 -0.129202 
-0.95466 0.0724335 -0.288751 0.437833 0.74068 0.509604 0.634489 0.635341 -0.440188 
-0.38529 0.382188 0.839931 0.114552 0.990195 -0.0799447 -0.491328 -0.32251 0.809064 
-0.369168 0.178868 0.911988 -0.745533 0.666199 -0.018966 0.179553 -0.963009 0.200933 
0.0273325 0.996688 0.0765904 -0.689807 0.384812 0.613259 -0.185046 -0.919735 0.346186 
-0.411648 0.902001 -0.130154 0.183741 0.962489 0.199634 -0.185362 0.976789 -0.107353 
-0.109968 -0.979581 -0.16831 0.589398 -0.697667 -0.407273 -0.462702 -0.813726 -0.35179 
-0.206097 -0.923279 -0.324159 -0.0700044 -0.984371 -0.161596 0.147896 -0.964999 0.216573 
-0.190426 0.9635 0.188166 -0.117423 0.987364 0.10642 -0.400904 -0.865081 -0.301515 
-0.108533 -0.991653 -0.06961 -0.0103146 -0.999744 0.02015 0.234235 -0.918136 0.319624 
-0.00327084 0.984825 -0.173519 -0.40563 -0.913876 -0.0172074 -0.0195259 0.999809 0.000874335 
-0.18486 0.98249 -0.0232375 0.0779328 0.973132 0.216659 -0.224058 -0.972942 -0.0564039 
-0.331138 0.932823 -0.142086 -0.287628 -0.945051 0.155399 -0.201276 -0.973997 -0.104005 
-0.175787 -0.96942 -0.171243 -0.267705 -0.953279 -0.139975 -0.185711 -0.98229 -0.0248654 
-0.173261 0.984717 -0.0176966 -0.229409 -0.969894 0.081709 0.316503 0.948377 -0.0201924 
-0.159285 -0.961521 -0.223844 -0.267171 -0.95406 -0.135609 0.0672851 0.993656 -0.0901114 
-0.152076 0.987083 0.0503914 -0.220733 -0.966208 0.133112 -0.464874 -0.79669 -0.386235 
0.221295 0.961176 0.164829 -0.231933 -0.938364 -0.256282 0.165762 0.985963 0.0199856 
-0.408201 -0.883566 -0.22953 0.359946 0.930227 0.0715374 -0.412754 -0.842723 -0.345618 
-0.0524215 -0.982762 -0.177287 -0.172318 -0.940775 -0.291975 -0.416482 -0.906539 -0.0687774 
-0.443205 -0.889063 -0.114611 -0.1238 -0.96696 -0.222851 -0.224043 -0.948046 -0.225862 
-0.218726 0.950442 0.22095 -0.449356 -0.87413 0.184324 -0.248244 -0.919865 -0.303682 
0.418796 0.90503 0.0743676 0.371317 0.909054 -0.189065 0.154779 0.931279 0.329791 
-0.242059 -0.946379 0.213947 -0.566512 -0.775369 0.279048 -0.557646 -0.830056 -0.00616833 
0.462645 0.88614 -0.0267407 -0.406639 -0.887718 0.215875 0.252578 0.967137 -0.0291428 
-0.761322 -0.624691 0.173638 -0.573231 -0.80639 0.1454 0.460779 0.886663 0.0388911 
-0.396074 -0.315393 0.862353 -0.427261 -0.902818 0.0486685 -0.605063 -0.79481 0.0466498 
-0.422089 -0.889613 -0.174441 0.44916 0.660383 -0.601788 -0.522542 -0.663383 -0.535605 
-0.491403 -0.363703 -0.791356 0.00470993 -0.985964 0.166889 -0.0211233 -0.712359 0.701497 
-0.674747 -0.66805 -0.313729 -0.737843 0.151059 0.657852 -0.0825029 0.23884 -0.967548 
-0.774066 -0.291707 0.561897 -0.00570042 0.0679865 -0.99767 -0.406258 0.850706 0.333548 
0.0316091 -0.863737 0.50295 -0.14141 -0.986058 -0.0877129 -0.279827 -0.877633 -0.389176 
-0.167229 0.985908 0.00449798 -0.18582 0.982515 0.011666 -0.107944 0.994155 0.0019463 
-0.465575 -0.862823 -0.196916 -0.239258 -0.805108 0.54273 -0.350111 0.93656 0.0166549 
-0.832877 -0.551658 -0.0446029 -0.156661 -0.838131 0.522489 0.550177 0.552713 -0.62595 
-0.705533 0.435027 0.559442 -0.833041 -0.482829 0.270034 -0.946637 -0.286295 -0.148032 
-0.872665 -0.236096 -0.42745 0.387947 0.715601 -0.580872 -0.755417 0.00784009 0.655197 
-0.0619581 -0.777923 0.625298 -0.465396 0.710733 0.527508 -0.821179 0.312902 0.477239 
-0.37117 -0.75934 0.534449 0.133162 -0.957446 -0.256056 0.728871 -0.146836 -0.668719 
-0.693856 -0.198023 0.692352 -0.556041 0.556067 0.617744 0.0945532 0.992818 0.0732886 
0.0842612 -0.984459 -0.154078 0.251557 0.967821 0.00646483 0.117115 0.992933 -0.0192005 
-0.439383 -0.60106 0.667585 0.03544 0.992157 0.119867 -0.0399626 -0.997172 -0.0636422 
-0.170991 0.953801 0.247032 0.237886 0.968234 0.0770271 -0.186038 -0.959567 -0.211237 
-0.0568646 -0.991629 0.115923 0.240582 0.958005 -0.156035 -0.0714039 0.997436 0.00484802 
-0.0890157 -0.99577 0.0227495 0.0918189 0.972172 0.215526 -0.00259726 0.99267 -0.120832 
0.0175432 -0.996852 0.0773184 -0.263319 -0.947314 0.18237 -0.175944 -0.981324 0.0777651 
-0.159771 -0.963952 0.212767 -0.323661 -0.946101 -0.0116511 -0.178894 -0.980441 0.0820533 
-0.0444823 -0.995425 0.0845565 -0.263521 -0.96216 -0.0693232 -0.178295 -0.979484 -0.0939276 
-0.179986 -0.977865 0.106702 -0.211803 -0.976277 0.0449632 -0.072829 -0.990808 0.114001 
-0.217166 -0.964151 -0.152488 0.0522681 0.998547 0.0131437 -0.0251026 -0.990865 0.132501 
-0.135448 -0.989658 0.0472433 -0.199037 -0.979985 0.00377507 -0.2435 -0.959663 -0.140553 
0.155781 0.982067 -0.106188 -0.107892 0.994105 -0.0107352 -0.111812 -0.977807 0.177178 
0.172859 0.942328 -0.286597 -0.204237 -0.978677 -0.0218634 0.0617452 0.996273 0.0602228 
-0.153782 -0.966128 0.207237 0.0289565 -0.999365 0.0207539 0.284043 0.958173 -0.0349916 
-0.15877 -0.986994 0.0251881 -0.0495398 0.998065 0.0375868 0.00251206 0.99484 0.101428 
0.0944434 0.990221 -0.102682 -0.518589 -0.854917 -0.013521 0.313106 0.943018 -0.11261 
-0.173501 -0.971463 -0.161732 0.23453 -0.965722 -0.11125 0.0878147 0.980333 0.176737 
0.592851 0.770381 -0.234609 0.527951 0.84912 -0.0161812 0.305223 0.944746 -0.119557 
0.171257 0.939868 0.295499 0.207147 -0.949942 -0.233879 0.541607 0.840232 0.0259033 
-0.685949 -0.672058 0.278947 0.387965 0.916366 0.0987779 -0.461602 -0.877443 -0.130451 
0.255884 0.837935 0.482067 0.464417 0.859205 -0.214671 0.657646 0.753303 -0.00595917 
-0.645105 -0.733004 0.215742 0.40051 0.916264 0.00719624 -0.452507 -0.834481 -0.314449 
-0.602615 -0.644755 -0.470262 -0.612979 -0.787344 0.065923 0.594615 0.801897 0.0582598 
-0.528155 -0.849143 -0.00290008 0.352775 0.901994 0.248911 -0.805318 -0.521117 -0.282666 
-0.329743 -0.78203 -0.528865 -0.550969 -0.829853 -0.0881862 -0.562089 -0.819321 -0.113 
0.541166 0.836495 0.086114 0.5512 -0.810192 0.19942 -0.870784 -0.460361 -0.172634 
0.651955 0.746897 0.130769 -0.580075 -0.787877 -0.206791 -0.852919 0.393072 -0.343546 
0.166254 0.48986 -0.855802 0.864069 0.44809 -0.229346 -0.938225 0.227879 -0.260395 
-0.0119848 0.342415 -0.939472 -0.582908 0.233404 -0.778294 -0.39544 -0.836182 -0.380035 
-0.507865 -0.861298 -0.0154912 -0.219827 -0.700182 0.67928 -0.787093 0.294611 0.541931 
-0.924481 -0.207477 0.319826 -0.863338 0.433069 -0.259034 -0.376447 -0.720369 -0.582543 
-0.897221 0.439371 -0.0441391 -0.392828 -0.0749344 -0.916554 -0.186429 -0.507243 -0.841397 
-0.614718 0.119863 0.779586 0.45553 -0.881925 0.121244 -0.0816876 -0.401798 0.912078 
-0.185905 -0.771884 0.607976 0.0430053 0.998792 0.0237744 -0.185508 -0.892388 0.411377 
0.1526 0.977589 -0.145029 0.767483 -0.508075 -0.390934 -0.675393 -0.483952 0.556448 
0.498476 0.664592 -0.556632 -0.358334 -0.928395 0.0983811 -0.0741361 -0.985953 0.149669 
0.230671 0.97288 -0.0171953 0.382944 -0.903175 0.193983 0.221017 0.960338 -0.170008 
0.429484 0.888539 -0.161374 -0.404012 -0.91272 0.0609703 -0.243832 -0.959845 0.138721 
-0.175863 -0.984413 0.00197985 0.281193 0.950888 -0.129392 0.477649 0.845795 -0.237659 
-0.223735 -0.974136 -0.0316576 -0.21317 -0.970349 0.113936 -0.171735 -0.983242 0.0611684 
-0.309742 -0.920662 0.237575 0.265831 0.964019 -0.000826352 -0.419133 -0.907828 0.0132821 
-0.250937 -0.957454 0.14252 -0.124361 -0.970284 0.207567 0.174312 0.984397 -0.024037 
-0.2662 -0.919922 0.287891 0.278813 0.955857 0.0927413 -0.213122 -0.936759 0.277599 
0.296007 0.944956 -0.139418 0.304885 0.927696 -0.215466 -0.218453 -0.962874 0.158593 
-0.130877 -0.949864 0.283954 -0.219576 -0.974967 -0.0350123 -0.0244647 -0.984839 0.171739 
-0.032242 0.985222 -0.16822 0.116275 0.988743 -0.0941658 0.130537 0.981713 -0.138561 
0.00993082 0.986903 -0.161009 -0.0295613 0.97171 -0.234318 -0.0268836 -0.987846 0.153096 
0.0526283 -0.998284 -0.0256781 -0.0182314 -0.95493 0.296271 -0.0753453 -0.976894 0.200005 
0.0680254 0.948262 -0.310115 0.0444294 0.984473 -0.169821 0.21989 0.975122 -0.0280242 
-0.114957 -0.992409 0.0436939 0.0578719 -0.990868 0.121788 0.114105 0.993241 0.0212776 
-0.103123 -0.97861 0.178013 -0.0273522 -0.997634 0.063081 0.500155 0.741522 -0.447203 
0.145112 0.989388 0.00739495 0.0222621 0.993857 -0.108409 0.190779 0.97853 0.0779948 
-0.176605 -0.980889 0.0816486 0.517984 0.854967 -0.0269114 -0.336026 -0.848091 0.409668 
0.110405 0.946809 0.302265 0.0786058 -0.989629 -0.12023 0.00439226 0.917463 0.397798 
-0.645487 -0.693484 0.320043 0.34675 0.937613 -0.0254095 0.302659 0.950693 -0.0676721 
-0.471916 -0.857994 -0.202835 0.231616 0.938399 0.256438 0.556955 0.723313 -0.40819 
-0.642296 -0.632463 0.43295 0.185144 0.982696 -0.00553658 -0.425162 -0.829256 -0.362729 
0.436106 0.803634 0.404949 -0.606624 -0.683721 0.405627 -0.327511 -0.870335 0.367769 
0.365482 0.803622 -0.469696 0.319105 0.947398 0.0246592 -0.567416 -0.768563 -0.295551 
-0.416529 -0.899562 -0.131498 -0.765255 -0.633283 -0.11549 -0.470471 -0.8256 0.311517 
0.538438 0.824269 -0.175114 0.303469 0.933655 0.19025 -0.610551 -0.257306 0.749013 
-0.718861 -0.476097 -0.506527 -0.662712 -0.710103 0.237836 0.459331 0.871865 -0.1699 
-0.170836 -0.873651 0.455576 -0.637457 -0.0980293 0.764224 -0.642426 -0.738047 -0.206337 
-0.899328 0.43714 -0.0108712 -0.180601 0.470102 0.863937 -0.171691 0.159247 -0.972195 
-0.821333 0.534329 0.199759 -0.23332 0.24313 -0.941515 0.306617 -0.815917 -0.490168 
-0.212299 -0.186511 -0.959241 -0.948662 0.315887 0.0159807 -0.610097 0.679835 -0.406948 
0.498097 -0.865006 0.0605285 0.700449 -0.661275 -0.268487 0.250053 0.959655 -0.128596 
-0.212792 -0.861649 0.460739 -0.979694 0.199718 0.0176461 -0.914905 -0.37562 0.147845 
-0.368677 -0.831442 0.41567 -0.123792 -0.967602 0.220049 0.193302 -0.981134 0.00323094 
-0.547401 -0.761516 0.347052 -0.544539 0.811632 -0.211498 -0.764355 0.644795 -0.000552378 
-0.770894 -0.538103 0.340833 -0.200302 -0.978449 -0.0501557 -0.349395 -0.903867 0.246876 
0.137539 0.974373 0.17799 -0.100779 -0.910836 0.400278 0.401723 0.915138 -0.0337755 
-0.235822 -0.944687 0.227933 -0.241928 -0.954336 0.175254 -0.216864 -0.927738 0.303765 
-0.0169294 -0.998257 0.0565291 -0.420741 -0.824835 -0.377656 -0.420417 -0.905424 0.058785 
-0.237127 -0.929804 0.281488 -0.825008 0.49963 0.264067 -0.309252 -0.892626 0.327996 
0.0730783 0.99553 0.0598245 0.0425812 0.934678 0.352936 -0.5886 -0.717424 -0.372629 
-0.406209 -0.895305 -0.182822 0.692914 0.647092 -0.318029 -0.123038 0.965032 0.231461 
-0.350309 -0.934112 0.0686977 -0.368642 -0.912171 0.17902 0.226139 0.973383 0.0372445 
0.209865 0.971255 -0.112338 0.208629 -0.964463 0.162129 -0.312026 -0.885495 0.344295 
-0.0605094 0.950049 -0.306178 -0.272789 -0.935391 -0.225009 0.190513 0.976463 0.101118 
0.0163733 -0.995757 0.0905528 0.182018 -0.978322 -0.098771 -0.219693 -0.953754 -0.205154 
-0.0260544 0.995048 0.0959199 0.177819 0.969161 -0.170607 0.223181 0.966795 0.124486 
-0.0400087 -0.983808 -0.174702 -0.890077 -0.279314 -0.360203 0.156614 0.983018 -0.0956457 
0.294974 0.916755 -0.269353 0.0718001 0.966068 0.248108 -0.421367 -0.905926 0.0418174 
-0.0843398 0.831514 -0.549064 0.518112 -0.542613 -0.661158 0.824479 -0.222573 -0.520284 
-0.405996 0.754815 0.515191 0.110425 -0.986436 0.121454 -0.117573 -0.98554 0.122017 
-0.60694 -0.738788 0.292945 -0.0942993 -0.846542 0.523903 0.42695 -0.693626 -0.580169 
0.404829 -0.763249 -0.503552 -0.399503 -0.631951 0.664105 0.07031 0.997408 -0.0153166 
0.469049 0.866533 -0.170627 -0.157464 0.942442 -0.294972 0.714303 -0.347826 -0.607279 
-0.292454 -0.734616 0.612217 -0.872191 -0.305866 0.381746 0.165657 0.984346 0.060177 
-0.586398 -0.804699 0.0927236 -0.436396 0.899448 0.0234729 -0.84502 -0.527972 0.0847764 
-0.280128 -0.825296 0.490322 0.523091 0.770254 -0.364808 -0.301735 -0.902424 0.307549 
-0.550307 -0.823949 0.135169 -0.726029 -0.61728 -0.303064 -0.664361 -0.614441 0.425542 
-0.125324 -0.951286 0.281688 -0.513889 -0.820919 0.249019 -0.526515 -0.845782 0.086219 
-0.645634 -0.661588 0.381389 -0.670359 -0.4244 0.60869 -0.294998 -0.506132 -0.810436 
0.78805 0.542252 -0.291444 0.230244 -0.932007 -0.279911 -0.0611199 -0.145372 0.987487 
0.062959 -0.129378 -0.989595 -0.753561 0.657048 0.0208167 0.308607 -0.907486 -0.285009 
-0.59557 0.764346 0.247127 -0.0216978 -0.302669 0.952849 -0.96762 -0.188217 0.168185 
-0.73976 -0.145227 -0.657012 -0.822828 0.51215 -0.246286 -0.709692 0.515486 0.480221 
-0.164438 -0.857187 -0.488048 -0.68469 -0.259035 -0.681249 -0.814768 0.570773 -0.10184 
0.540239 -0.838986 -0.0651431 -0.559726 -0.648676 -0.51568 -0.149378 -0.810729 -0.566043 
-0.591102 -0.5082 -0.626364 -0.904813 -0.252577 0.34281 -0.0307584 0.702788 0.710734 
0.00225048 0.979705 -0.200433 -0.379945 -0.79931 -0.465559 -0.948737 -0.231095 -0.215624 
-0.988838 -0.133497 0.0661632 0.0701771 -0.64536 0.760648 -0.879641 -0.474264 0.036122 
-0.971801 -0.0769159 -0.222904 0.564436 0.545383 -0.619653 -0.208401 0.78927 -0.577601 
-0.0941127 -0.916021 0.389935 -0.10905 0.909326 -0.401541 0.124939 -0.959433 0.252743 
-0.843969 0.227662 0.485682 -0.585534 0.519405 0.622389 -0.824636 0.139075 0.548301 
-0.660684 0.344957 0.666709 -0.95297 0.0694169 0.295009 -0.880559 -0.261355 0.39536 
0.548094 -0.835213 -0.0448649 0.528168 0.0113657 -0.849064 0.146223 0.324627 -0.934471 
-0.617228 0.604313 0.503821 0.0649543 -0.473818 0.878224 -0.960159 -0.22227 -0.169385 
-0.908555 -0.327463 -0.259413 -0.109209 -0.938487 0.327591 -0.40948 -0.8868 -0.21427 
-0.495001 0.0900701 -0.864212 -0.70226 -0.356485 -0.616237 -0.532371 0.811474 -0.241022 
-0.613781 0.466747 -0.636725 -0.810386 0.43305 -0.394641 -0.302771 0.865037 0.40005 
-0.539988 -0.00504192 -0.841657 0.123224 -0.622008 0.773254 -0.378259 0.791743 -0.479648 
-0.911218 0.13874 -0.387857 -0.682451 0.724548 -0.0963928 -0.46681 0.106828 -0.877882 
-0.624524 0.744397 0.236312 -0.597718 -0.251206 0.761333 -0.654558 0.719231 -0.232937 
-0.537472 0.825302 0.173207 -0.928923 -0.227977 0.291767 -0.767753 -0.222412 0.600906 
0.0101028 -0.124159 0.992211 -0.621881 0.296816 -0.724682 0.168461 -0.980768 -0.0985692 
-0.922458 0.0346863 -0.384535 -0.402703 0.1675 0.899874 0.0913186 -0.419225 -0.903278 
-0.659648 -0.555355 0.506405 -0.619023 0.784267 -0.0416629 -0.126427 0.985172 -0.115986 
0.214355 0.918077 0.333446 -0.41034 0.0313229 0.911394 -0.374695 -0.179348 0.909636 
0.219499 0.897261 0.383071 -0.593224 -0.767678 -0.242397 -0.338988 0.103608 -0.935068 
-0.286491 0.784699 -0.549701 -0.673372 -0.470891 -0.56994 -0.0846362 -0.703392 0.705745 
-0.0916745 0.017394 0.995637 -0.200125 0.409731 0.889983 0.737111 0.280264 -0.614914 
-0.478241 -0.82419 0.303309 -0.854631 0.449275 0.260303 -0.14216 -0.531759 0.834879 
-0.28823 0.740466 -0.607152 -0.21714 0.459614 0.861165 -0.268125 -0.379809 0.885355 
-0.726447 -0.349639 -0.591631 -0.582441 0.540789 -0.606885 0.117696 -0.931263 0.344815 
-0.226751 -0.762111 -0.606441 -0.452571 0.535256 0.713219 -0.0432585 0.819352 0.571656 
-0.334703 0.917628 -0.214321 -0.0189927 -0.911758 0.410289 -0.788816 -0.610264 -0.0731249 
-0.741931 -0.644088 -0.186251 -0.976945 -0.143565 -0.158014 -0.55776 -0.53034 0.63847 
-0.136296 0.859463 -0.492693 -0.170241 -0.796609 0.580028 -0.890498 0.290439 -0.350226 
-0.584533 0.412764 -0.698532 -0.988364 0.14772 0.0362803 -0.906094 -0.0445676 -0.420721 
-0.511565 0.141583 -0.847499 -0.875567 -0.434163 -0.211863 0.232673 0.345536 -0.909103 
-0.792832 -0.325132 -0.515468 -0.709286 -0.333095 -0.621258 -0.941089 0.0632801 -0.332185 
-0.975923 -0.168065 -0.139023 -0.42485 0.620395 0.659251 -0.064012 -0.449418 -0.891025 
-0.983258 -0.117341 -0.13941 -0.753091 -0.656686 -0.040221 -0.939239 0.337797 -0.0610122 
-0.911658 -0.182895 -0.368007 -0.789811 -0.374204 0.485972 -0.67878 -0.156267 0.717523 
-0.150769 -0.316439 0.936555 -0.917502 -0.311849 -0.246861 0.189315 0.090283 -0.977757 
-0.944337 0.0397132 0.326573 -0.470965 0.660528 0.584717 -0.922458 0.0346863 -0.384535 
-0.568591 -0.211891 -0.794863 -0.759204 -0.322027 -0.565603 -0.808824 -0.509963 0.292817 
0.0663123 0.144815 0.987234 -0.664171 -0.35543 0.657682 -0.678712 -0.646225 0.348918 
-0.510163 -0.163044 -0.844482 -0.382392 -0.00664476 -0.923976 0.112736 0.173462 -0.978367 
-0.115151 -0.362218 -0.924953 0.143318 0.698865 -0.700748 -0.861965 -0.373497 -0.342806 
-0.25882 0.3422 -0.903278 -0.190446 -0.856499 -0.479728 -0.21846 -0.749009 0.625508 
-0.656876 -0.704383 -0.268995 -0.580426 -0.461903 -0.670635 -0.74071 -0.414444 -0.528757 