# vtk DataFile Version 4.0
vtk output
ASCII
DATASET UNSTRUCTURED_GRID
POINTS 29957 double
-1.93184 89.7602 -0.925331 -1.67571 97.7554 -0.818562 -1.0414 88.7261 -0.554142 
-2.1369 78.6628 6.36719 -1.34755 -7.32016 -0.681764 -1.31553 -6.32077 -0.668417 
-1.28352 -5.32137 -0.655071 -0.378079 -4.32197 -2.73697 -1.2515 -4.32197 -0.641725 
-1.21948 -3.32257 -0.628379 -1.18747 -2.32317 -0.615033 -1.15545 -1.32377 -0.601687 
-1.12344 -0.324376 -0.588341 -1.39456 -10.353 1.75797 -0.489121 -9.35365 -0.323921 
-1.36254 -9.35365 1.77132 -0.457105 -8.35425 -0.310574 -1.33053 -8.35425 1.78467 
-0.425089 -7.35485 -0.297228 -1.29851 -7.35485 1.79801 -0.393073 -6.35545 -0.283882 
-1.26649 -6.35545 1.81136 0.512363 -5.35605 -2.36578 -0.361057 -5.35605 -0.270536 
-1.23448 -5.35605 1.82471 -0.329041 -4.35666 -0.25719 -1.20246 -4.35666 1.83805 
-0.297025 -3.35726 -0.243844 -1.17045 -3.35726 1.8514 -0.265009 -2.35786 -0.230498 
-1.13843 -2.35786 1.86474 -0.232993 -1.35846 -0.217152 -1.10641 -1.35846 1.87809 
-0.200978 -0.359062 -0.203806 -1.0744 -0.359062 1.89144 -0.168962 0.640336 -0.190459 
-1.04238 0.640336 1.90478 -1.01037 1.63973 1.91813 -0.97835 2.63913 1.93147 
-0.946334 3.63853 1.94482 -1.59564 10.6343 4.13348 -1.56363 11.6337 4.14683 
-1.53161 12.6331 4.16018 -1.4996 13.6325 4.17352 -1.46758 14.6319 4.18687 
-1.43556 15.6313 4.20022 -1.40355 16.6307 4.21356 -1.37153 17.6301 4.22691 
-1.33952 18.6295 4.24025 -1.3075 19.6289 4.2536 -1.27548 20.6283 4.26695 
-0.813229 89.5868 9.37831 0.124223 91.5856 7.30976 -0.600162 -14.3853 2.08913 
-0.568146 -13.3859 2.10247 -0.53613 -12.3865 2.11582 -0.504115 -11.3871 2.12916 
-1.37754 -11.3871 4.22441 0.401322 -10.3877 0.0472685 -0.472099 -10.3877 2.14251 
-1.34552 -10.3877 4.23775 0.433338 -9.38833 0.0606146 -0.440083 -9.38833 2.15586 
-1.3135 -9.38833 4.2511 0.465354 -8.38893 0.0739608 -0.408067 -8.38893 2.1692 
-1.28149 -8.38893 4.26444 0.49737 -7.38954 0.0873069 -0.376051 -7.38954 2.18255 
-1.24947 -7.38954 4.27779 0.529385 -6.39014 0.100653 -0.344035 -6.39014 2.19589 
-1.21746 -6.39014 4.29114 0.561401 -5.39074 0.113999 -0.312019 -5.39074 2.20924 
-1.18544 -5.39074 4.30448 0.593417 -4.39134 0.127345 -0.280003 -4.39134 2.22259 
-1.15342 -4.39134 4.31783 0.625433 -3.39194 0.140691 -0.247987 -3.39194 2.23593 
-1.12141 -3.39194 4.33117 0.657449 -2.39254 0.154037 -0.215971 -2.39254 2.24928 
-1.08939 -2.39254 4.34452 0.689465 -1.39315 0.167384 -0.183956 -1.39315 2.26263 
-1.05738 -1.39315 4.35787 0.721481 -0.393748 0.18073 -0.15194 -0.393748 2.27597 
-1.02536 -0.393748 4.37121 0.753497 0.60565 0.194076 -0.119924 0.60565 2.28932 
-0.993344 0.60565 4.38456 0.785513 1.60505 0.207422 -0.0879079 1.60505 2.30266 
-0.961328 1.60505 4.3979 -0.055892 2.60445 2.31601 -0.929312 2.60445 4.41125 
-0.0238761 3.60384 2.32936 -0.897297 3.60384 4.4246 -0.865281 4.60324 4.43794 
0.0401557 5.60264 2.35605 -0.833265 5.60264 4.45129 0.0721716 6.60204 2.36939 
-0.801249 6.60204 4.46464 0.104188 7.60144 2.38274 -0.769233 7.60144 4.47798 
0.136203 8.60084 2.39609 -0.737217 8.60084 4.49133 0.168219 9.60023 2.40943 
-0.705201 9.60023 4.50467 -0.673185 10.5996 4.51802 -0.641169 11.599 4.53137 
-0.609154 12.5984 4.54471 -0.577138 13.5978 4.55806 -0.545122 14.5972 4.5714 
-1.41854 14.5972 6.66665 -0.513106 15.5966 4.58475 -1.38653 15.5966 6.67999 
-0.48109 16.596 4.5981 -1.35451 16.596 6.69334 -0.449074 17.5954 4.61144 
-1.32249 17.5954 6.70668 -0.417058 18.5948 4.62479 -1.29048 18.5948 6.72003 
-0.385042 19.5942 4.63813 -1.25846 19.5942 6.73338 -0.353026 20.5936 4.65148 
-1.22645 20.5936 6.74672 -0.32101 21.593 4.66483 -1.19443 21.593 6.76007 
-1.16242 22.5924 6.77341 -1.1304 23.5918 6.78676 -1.09838 24.5912 6.80011 
0.0521358 -77.3821 -2.55763 0.0841517 -76.3827 -2.54428 0.212215 -72.3851 -2.4909 
-0.647172 -17.4182 4.52886 -0.615156 -16.4188 4.54221 0.29028 -15.4194 2.46031 
-0.58314 -15.4194 4.55556 0.322296 -14.42 2.47366 -0.551124 -14.42 4.5689 
0.354312 -13.4206 2.48701 -0.519108 -13.4206 4.58225 0.386328 -12.4212 2.50035 
-0.487093 -12.4212 4.59559 -1.36051 -12.4212 6.69084 0.418344 -11.4218 2.5137 
-0.455077 -11.4218 4.60894 -1.3285 -11.4218 6.70418 1.32378 -10.4224 0.431804 
0.45036 -10.4224 2.52705 -0.423061 -10.4224 4.62229 -1.29648 -10.4224 6.71753 
1.3558 -9.42302 0.44515 0.482376 -9.42302 2.54039 -0.391045 -9.42302 4.63563 
-1.26447 -9.42302 6.73087 1.38781 -8.42362 0.458496 0.514392 -8.42362 2.55374 
-0.359029 -8.42362 4.64898 1.41983 -7.42422 0.471842 0.546407 -7.42422 2.56708 
-0.327013 -7.42422 4.66232 1.45184 -6.42482 0.485188 0.578423 -6.42482 2.58043 
-0.294997 -6.42482 4.67567 1.48386 -5.42543 0.498534 0.610439 -5.42543 2.59378 
-0.262981 -5.42543 4.68902 1.51588 -4.42603 0.51188 0.642455 -4.42603 2.60712 
-0.230965 -4.42603 4.70236 0.674471 -3.42663 2.62047 -0.198949 -3.42663 4.71571 
0.706487 -2.42723 2.63381 -0.166934 -2.42723 4.72906 0.738503 -1.42783 2.64716 
-0.134918 -1.42783 4.7424 0.770519 -0.428435 2.66051 -0.102902 -0.428435 4.75575 
0.802535 0.570964 2.67385 -0.0708859 0.570964 4.76909 0.834551 1.57036 2.6872 
-0.03887 1.57036 4.78244 0.866566 2.56976 2.70054 -0.00685408 2.56976 4.79579 
0.898582 3.56916 2.71389 0.0251618 3.56916 4.80913 0.930598 4.56856 2.72724 
0.0571777 4.56856 4.82248 0.962614 5.56795 2.74058 0.0891936 5.56795 4.83582 
0.99463 6.56735 2.75393 0.12121 6.56735 4.84917 1.02665 7.56675 2.76728 
0.153225 7.56675 4.86252 1.05866 8.56615 2.78062 0.185241 8.56615 4.87586 
1.09068 9.56555 2.79397 0.217257 9.56555 4.88921 -0.656163 9.56555 6.98445 
1.12269 10.5649 2.80731 0.249273 10.5649 4.90256 1.15471 11.5643 2.82066 
0.281289 11.5643 4.9159 1.18673 12.5637 2.83401 0.313305 12.5637 4.92925 
1.21874 13.5631 2.84735 0.345321 13.5631 4.94259 0.377337 14.5625 4.95594 
-0.496084 14.5625 7.05118 0.409353 15.5619 4.96929 -0.464068 15.5619 7.06453 
-1.33749 15.5619 9.15977 0.441368 16.5613 4.98263 -0.432052 16.5613 7.07787 
-1.30547 16.5613 9.17311 0.473384 17.5607 4.99598 -0.400036 17.5607 7.09122 
-1.27346 17.5607 9.18646 0.5054 18.5601 5.00932 -0.36802 18.5601 7.10457 
-1.24144 18.5601 9.19981 0.537416 19.5595 5.02267 -0.336004 19.5595 7.11791 
-1.20942 19.5595 9.21315 0.569432 20.5589 5.03602 -0.303988 20.5589 7.13126 
-1.17741 20.5589 9.2265 0.601448 21.5583 5.04936 -0.271973 21.5583 7.1446 
-1.14539 21.5583 9.23985 0.633464 22.5577 5.06271 -0.239957 22.5577 7.15795 
-1.11338 22.5577 9.25319 -0.207941 23.5571 7.1713 -1.08136 23.5571 9.26654 
-0.175925 24.5565 7.18464 -1.04935 24.5565 9.27988 -1.01733 25.5559 9.29323 
-0.985314 26.5553 9.30658 -1.76269 29.5535 11.4419 0.974594 -77.4168 -2.17309 
1.00661 -76.4174 -2.15975 1.03863 -75.418 -2.1464 1.07064 -74.4186 -2.13305 
-0.676199 -74.4186 2.05743 1.10266 -73.4192 -2.11971 1.13467 -72.4198 -2.10636 
-0.694182 -20.4511 6.9686 -0.662166 -19.4517 6.98195 0.243271 -18.4523 4.90005 
-0.63015 -18.4523 6.99529 0.275286 -17.4529 4.9134 -0.598134 -17.4529 7.00864 
0.307302 -16.4535 4.92675 -0.566118 -16.4535 7.02199 1.21274 -15.4541 2.84485 
0.339318 -15.4541 4.94009 -0.534102 -15.4541 7.03533 1.24475 -14.4547 2.8582 
0.371334 -14.4547 4.95344 -0.502086 -14.4547 7.04868 1.27677 -13.4553 2.87154 
0.40335 -13.4553 4.96678 -0.470071 -13.4553 7.06202 -1.34349 -13.4553 9.15727 
1.30879 -12.4559 2.88489 0.435366 -12.4559 4.98013 -0.438055 -12.4559 7.07537 
-1.31148 -12.4559 9.17061 1.3408 -11.4565 2.89823 0.467382 -11.4565 4.99348 
-0.406039 -11.4565 7.08872 -1.27946 -11.4565 9.18396 1.37282 -10.4571 2.91158 
0.499398 -10.4571 5.00682 -0.374023 -10.4571 7.10206 -1.24744 -10.4571 9.1973 
1.40483 -9.45771 2.92493 0.531414 -9.45771 5.02017 1.43685 -8.45831 2.93827 
0.563429 -8.45831 5.03351 1.46887 -7.45891 2.95162 0.595445 -7.45891 5.04686 
1.50088 -6.45951 2.96496 0.627461 -6.45951 5.06021 1.5329 -5.46011 2.97831 
0.659477 -5.46011 5.07355 0.691493 -4.46071 5.0869 0.723509 -3.46132 5.10024 
0.755525 -2.46192 5.11359 0.787541 -1.46252 5.12694 0.819557 -0.463121 5.14028 
0.851573 0.536277 5.15363 0.883588 1.53568 5.16698 0.915604 2.53507 5.18032 
0.94762 3.53447 5.19367 0.979636 4.53387 5.20701 1.04367 6.53267 5.23371 
1.07568 7.53207 5.24705 1.1077 8.53146 5.2604 1.13972 9.53086 5.27374 
1.17173 10.5303 5.28709 1.20375 11.5297 5.30044 1.23576 12.5291 5.31378 
1.26778 13.5285 5.32713 1.2998 14.5279 5.34047 0.426375 14.5279 7.43572 
1.33181 15.5273 5.35382 0.45839 15.5273 7.44906 -0.41503 15.5273 9.5443 
0.490406 16.5266 7.46241 -0.383014 16.5266 9.55765 0.522422 17.526 7.47575 
-0.350998 17.526 9.571 -1.22442 17.526 11.6662 0.554438 18.5254 7.4891 
-0.318982 18.5254 9.58434 -1.1924 18.5254 11.6796 0.586454 19.5248 7.50245 
-0.286966 19.5248 9.59769 -1.16039 19.5248 11.6929 0.61847 20.5242 7.51579 
-0.254951 20.5242 9.61103 -1.12837 20.5242 11.7063 0.650486 21.5236 7.52914 
-0.222935 21.5236 9.62438 -1.09636 21.5236 11.7196 0.682502 22.523 7.54249 
-0.190919 22.523 9.63773 -1.06434 22.523 11.733 0.714518 23.5224 7.55583 
-0.158903 23.5224 9.65107 -1.03232 23.5224 11.7463 0.746534 24.5218 7.56918 
-0.126887 24.5218 9.66442 -1.00031 24.5218 11.7597 0.778549 25.5212 7.58252 
-0.0948711 25.5212 9.67776 -0.968292 25.5212 11.773 -0.0628552 26.5206 9.69111 
-0.936276 26.5206 11.7864 -0.0308393 27.52 9.70446 -0.90426 27.52 11.7997 
-0.872244 28.5194 11.813 -1.74566 28.5194 13.9083 -0.840228 29.5188 11.8264 
-1.71365 29.5188 13.9216 -0.808212 30.5182 11.8397 -1.68163 30.5182 13.935 
-1.64962 31.5176 13.9483 -1.6176 32.517 13.9617 -0.336965 72.493 14.4955 
1.92907 -76.4521 -1.77521 1.96108 -75.4527 -1.76186 0.0131566 -54.4653 4.80413 
0.429363 -41.4731 4.97763 -0.773208 -24.4834 9.39499 -0.741192 -23.484 9.40834 
-0.709176 -22.4846 9.42169 0.196261 -21.4852 7.33979 -0.67716 -21.4852 9.43503 
0.228277 -20.4858 7.35314 -0.645144 -20.4858 9.44838 1.13371 -19.4864 5.27124 
0.260293 -19.4864 7.36648 -0.613128 -19.4864 9.46172 1.16573 -18.487 5.28459 
0.292308 -18.487 7.37983 -0.581112 -18.487 9.47507 1.19774 -17.4876 5.29793 
0.324324 -17.4876 7.39318 -0.549096 -17.4876 9.48842 1.22976 -16.4882 5.31128 
[...]
POINT_DATA 29957
VECTORS DTMRIFiberOrientation float
-0.228604 0.91822 -0.323437 -0.0841278 -0.931041 -0.355086 -0.187092 -0.979618 -0.0731126 
-0.425453 -0.550519 0.718274 -0.325546 -0.861893 0.388793 -0.2818 -0.79333 0.539645 
-0.221041 -0.723181 0.654332 -0.642951 0.591547 0.486504 -0.526314 -0.690326 0.496431 
-0.833317 -0.548641 0.0676466 -0.674704 -0.637047 -0.372754 -0.622528 -0.701991 -0.345931 
-0.620115 -0.757419 -0.204387 -0.828578 -0.545405 0.126454 -0.483841 -0.786595 0.383623 
-0.874255 -0.482687 -0.0518773 -0.542898 -0.793525 0.274919 -0.897312 -0.42808 -0.107607 
-0.594143 -0.791719 0.142039 -0.86901 -0.491937 -0.053105 -0.614349 -0.786059 -0.0684526 
-0.8215 -0.568724 0.0411148 -0.933851 -0.296612 0.199859 -0.35855 -0.821409 0.443542 
-0.878684 -0.477392 -0.00340135 -0.250131 -0.771279 0.585288 -0.937249 -0.314472 -0.150571 
-0.291549 -0.737648 0.608995 -0.896307 -0.42955 -0.110096 -0.732426 -0.64037 -0.231256 
-0.667493 -0.680577 0.302107 -0.548689 -0.745015 -0.379333 -0.680339 -0.71569 0.157879 
-0.553192 -0.780357 -0.291585 -0.769453 -0.59298 -0.237311 -0.713974 -0.638804 -0.286653 
-0.933442 -0.237424 -0.268917 -0.842177 -0.488625 0.228 -0.933366 -0.357442 -0.0326159 
-0.954967 -0.294194 -0.0385627 -0.989349 -0.127625 -0.0700067 -0.937915 -0.340731 -0.0649536 
-0.82372 -0.561135 -0.0813184 -0.902066 -0.413721 0.122931 -0.869216 -0.365591 0.332877 
-0.861604 -0.455624 0.223708 -0.776728 -0.610176 0.156139 -0.743318 -0.636641 0.205346 
-0.742795 -0.580003 0.334442 -0.758046 -0.531408 0.378115 -0.681903 -0.483631 0.548735 
-0.528528 -0.547807 -0.64851 -0.0479756 0.982628 0.179277 -0.520464 -0.668899 0.530746 
-0.443596 -0.774846 0.450374 -0.581147 -0.730045 0.359587 -0.750357 -0.618996 0.231968 
-0.86748 -0.401409 0.293853 -0.341709 -0.776299 0.529711 -0.85234 -0.521893 -0.0338246 
-0.933162 -0.346961 0.0939546 -0.423951 -0.785672 0.450539 -0.866625 -0.491095 -0.0882415 
-0.945221 -0.228531 -0.233089 -0.570223 -0.773968 0.275353 -0.891792 -0.43794 -0.113646 
-0.95696 -0.173956 -0.23231 -0.678197 -0.72786 0.101331 -0.859859 -0.498491 0.110224 
-0.886698 -0.443737 0.129863 -0.660582 -0.727218 0.186509 -0.75818 -0.590641 0.276235 
-0.764445 -0.554826 0.328317 0.466724 0.78274 -0.411687 -0.802245 -0.574232 0.16328 
-0.87978 -0.396663 0.262002 -0.370166 -0.801684 0.469339 -0.815651 -0.498863 -0.293001 
-0.990061 -0.0633075 -0.125588 -0.435069 -0.812413 0.388201 -0.866011 -0.423814 -0.265343 
-0.873633 -0.48227 0.0646608 0.424912 0.871053 -0.246407 -0.767982 -0.636416 0.071963 
-0.90461 -0.201302 -0.375711 -0.47612 -0.862529 -0.171332 -0.786026 -0.615161 0.0611541 
-0.957844 -0.0299688 -0.285722 -0.634972 -0.640145 -0.432465 -0.825334 -0.561322 -0.0611646 
-0.996718 -0.0758007 -0.0284264 -0.812151 -0.524663 -0.255226 -0.828579 -0.559218 -0.0270712 
0.522941 0.833691 -0.177459 -0.869964 -0.44697 -0.208282 -0.9107 -0.405997 -0.0761025 
-0.133603 -0.966154 0.220675 -0.796608 -0.573581 -0.190844 -0.0164604 -0.804477 0.593756 
-0.855066 -0.319812 -0.408145 -0.160201 -0.784634 0.598903 -0.531527 -0.829392 0.17201 
-0.497179 -0.536687 0.681748 -0.633064 -0.287442 -0.718754 -0.389245 -0.384704 0.836953 
-0.565563 -0.218462 -0.795244 -0.0794323 -0.404221 0.911206 -0.926761 0.260497 -0.270658 
-0.496722 0.352279 -0.7932 -0.970491 -0.203073 -0.130032 -0.212614 0.458946 -0.862649 
-0.988915 -0.123749 -0.0820584 -0.932792 0.0184852 -0.35994 -0.900093 -0.169646 -0.401314 
-0.831981 -0.474526 -0.287459 -0.92858 -0.327014 -0.175504 -0.877639 -0.309641 0.365886 
-0.601982 -0.277736 0.748652 -0.882931 -0.334266 0.329694 -0.807886 -0.245665 0.535695 
-0.871912 -0.438791 0.217331 -0.84701 -0.112786 0.519474 -0.841559 -0.524116 0.130694 
-0.858217 -0.155296 0.489231 -0.84404 -0.536068 0.0150603 -0.900047 -0.326467 0.288677 
-0.816958 -0.574349 -0.0519996 -0.851861 -0.522677 -0.0338013 -0.828176 -0.560211 -0.0169813 
-0.786102 -0.590668 -0.182082 -0.845495 -0.510436 0.156823 -0.765105 -0.623373 -0.161308 
-0.783815 -0.61728 -0.0678186 -0.81502 -0.579241 -0.0148851 -0.877585 -0.466174 -0.111924 
-0.9546 0.193954 -0.2261 -0.906792 -0.41959 0.040885 -0.441787 -0.422336 -0.79149 
-0.528342 -0.63383 0.564902 -0.623836 -0.606024 0.493521 -0.557192 -0.647507 0.519877 
-0.817802 -0.512417 0.261971 -0.552183 -0.656162 0.51434 -0.883831 -0.447581 0.136065 
-0.608988 -0.702288 0.36868 -0.930084 -0.340337 0.138254 -0.740507 -0.652909 0.159244 
-0.912263 -0.299254 0.279684 -0.999194 -0.00470058 -0.039856 -0.787584 -0.588702 0.182046 
-0.850734 -0.354571 0.387983 -0.991916 -0.122684 -0.032438 -0.356331 -0.770849 0.528034 
-0.847761 -0.526343 0.0653087 -0.881059 -0.368473 0.296585 -0.964205 -0.253821 0.0767059 
-0.403874 -0.757225 0.51332 -0.861335 -0.50392 -0.0645525 -0.984435 -0.154736 -0.0833386 
-0.983252 -0.177687 -0.04054 -0.608351 -0.738196 0.291506 -0.850103 -0.525297 -0.0372572 
-0.979488 -0.0488161 -0.195502 -0.675591 -0.73097 0.0962283 -0.882516 -0.469001 0.0346841 
-0.968127 -0.249191 -0.0251899 -0.622867 -0.735696 0.266061 -0.911578 -0.402549 -0.0835514 
-0.842854 -0.53153 0.0841059 -0.571307 -0.715149 0.402703 -0.876746 -0.480865 -0.00926614 
-0.169818 -0.509258 0.843693 -0.658661 -0.69319 0.292665 -0.881022 -0.464055 -0.0919401 
-0.885698 -0.313362 0.342553 -0.934545 -0.237512 -0.264979 -0.793852 -0.497218 0.350104 
-0.94851 -0.110164 -0.296972 -0.9072 -0.394014 -0.147447 -0.926226 -0.265533 -0.267577 
-0.909518 -0.104311 -0.402364 -0.910653 -0.381327 -0.15906 -0.950773 -0.0453152 -0.306558 
-0.859912 -0.469473 -0.200365 -0.853372 0.36006 -0.376977 -0.85074 -0.377171 -0.366039 
0.147465 0.797902 -0.584471 -0.77222 -0.464845 -0.433123 -0.119666 0.84282 -0.524722 
-0.804606 -0.111467 -0.583254 0.286735 -0.784756 0.549491 -0.723732 0.360516 -0.588422 
-0.589062 -0.764355 -0.262236 -0.476964 0.519057 -0.709285 -0.45062 -0.510161 -0.732583 
-0.220393 -0.426558 0.877197 -0.494882 -0.443333 -0.74736 -0.827657 0.509914 0.234459 
-0.850101 0.389949 -0.353934 -0.624147 0.421429 -0.657904 -0.907009 0.300694 -0.294819 
-0.531228 0.310599 -0.788242 -0.786492 0.443079 -0.430246 -0.44496 0.863588 0.237122 
-0.362822 0.365349 -0.857252 -0.64829 0.688487 -0.325125 -0.318425 -0.329787 0.888733 
-0.745302 0.226461 -0.627088 -0.648922 -0.374493 0.662311 -0.808948 -0.258698 -0.5279 
-0.738007 -0.380805 0.557075 -0.922629 -0.303011 -0.23862 -0.886808 -0.30622 0.346124 
0.253445 0.315512 -0.91445 -0.858266 -0.309817 0.409137 -0.879317 -0.132214 0.457516 
-0.11859 -0.475672 -0.871592 -0.894969 -0.358629 0.265359 -0.934972 -0.0379153 0.35269 
-0.147779 0.423301 0.893856 -0.899114 -0.41136 0.149591 -0.898773 -0.0283619 0.437495 
-0.84187 0.014755 0.539479 -0.863287 -0.497679 -0.083968 -0.884805 -0.214546 0.41363 
-0.867727 -0.0273472 0.496289 -0.812376 -0.561348 -0.157903 -0.884402 -0.456383 0.097713 
-0.840615 -0.100439 0.532238 -0.808299 -0.578196 -0.111091 -0.826264 -0.556295 -0.0884511 
-0.879616 -0.206591 0.428481 -0.811927 -0.577244 -0.0869718 -0.790327 -0.602325 -0.112193 
-0.930556 -0.343932 0.125607 -0.839306 -0.533873 0.102692 -0.783914 -0.616231 -0.0757528 
-0.869789 -0.485143 -0.0900137 -0.797934 -0.601915 -0.0316169 -0.80036 -0.586272 -0.125336 
-0.859266 -0.50524 -0.0799684 -0.772098 -0.62158 -0.132299 -0.818843 -0.563797 -0.107834 
-0.882186 -0.468466 -0.047818 -0.817611 -0.575757 -0.00399528 -0.817411 -0.098554 -0.567561 
-0.906478 -0.14204 -0.397646 -0.804421 -0.432044 -0.407733 -0.443573 -0.713114 -0.542873 
-0.853038 -0.354542 0.382918 -0.301888 -0.898867 -0.317649 -0.149548 0.16565 -0.97478 
-0.475565 -0.581458 0.66011 -0.635435 -0.564233 0.527128 -0.518192 -0.587833 0.621232 
-0.817894 -0.536183 0.208703 -0.531901 -0.634099 0.561248 -0.846749 -0.519864 0.112954 
-0.715535 -0.586784 0.379069 -0.898435 -0.42473 0.111441 -0.50434 -0.653182 0.564797 
-0.82705 -0.506872 0.243039 -0.932022 -0.324598 0.161153 -0.508954 -0.668797 0.541919 
-0.890653 -0.439252 0.117448 -0.98034 -0.139113 0.139933 -0.699621 -0.645966 0.305381 
-0.945567 -0.317869 0.0697251 -0.996442 0.0837927 0.00903879 -0.993615 0.00110417 -0.112818 
-0.793422 -0.595976 0.123667 -0.942002 -0.249815 0.224111 -0.984424 0.0598098 -0.165326 
-0.995449 -0.0122546 -0.0945038 -0.831618 -0.549391 0.0811192 -0.889513 -0.301904 0.342959 
-0.982987 -0.17801 -0.0452692 -0.667559 0.644828 -0.372239 -0.865536 -0.49984 -0.0317334 
-0.846216 -0.404459 0.346887 -0.988164 -0.15199 -0.0207619 -0.81118 0.550396 -0.197615 
-0.845057 -0.5275 -0.0873064 -0.974164 -0.20182 0.101352 -0.859706 -0.509213 0.0401083 
-0.982007 -0.0120283 -0.188459 -0.895376 -0.443258 0.0427088 -0.980632 -0.125237 -0.150586 
-0.929595 -0.299624 -0.214658 -0.868467 -0.198476 -0.454283 -0.886844 -0.231945 -0.399636 
-0.379328 0.0813602 -0.921678 0.29065 0.401366 -0.868578 -0.365157 -0.328219 0.871168 
-0.469378 0.173667 -0.865751 -0.788881 -0.436517 -0.432573 -0.913648 -0.0327006 -0.405188 
-0.85568 0.199337 -0.477573 -0.977411 0.144176 0.154535 -0.860219 0.456636 -0.226949 
-0.708387 0.63636 -0.305341 -0.352258 0.782225 -0.513846 -0.702597 -0.254178 -0.664644 
-0.61234 -0.365288 -0.701145 0.131985 -0.0444244 0.990256 0.269451 0.30397 0.913782 
-0.0951615 0.957077 0.273764 -0.024404 0.925767 0.377305 -0.799293 -0.0927792 -0.593737 
-0.813673 -0.10845 -0.571118 -0.890537 -0.228876 -0.39314 -0.0737006 -0.0876768 0.993419 
-0.86645 -0.330395 0.374304 -0.504206 0.0795565 0.859911 -0.123727 -0.536286 -0.834919 
-0.946507 0.00890482 0.322561 0.283738 -0.345033 -0.894676 -0.899527 0.0797706 0.429521 
-0.723449 0.174232 0.668031 -0.420863 -0.0430249 0.906103 -0.845619 0.0131159 0.533626 
-0.887637 0.0515879 0.457644 -0.724486 0.00847642 0.689238 -0.881964 -0.241439 0.404779 
-0.865435 -0.033403 0.499907 -0.826053 0.00473335 0.563572 -0.887637 -0.413444 0.202888 
-0.89932 -0.0899329 0.427943 -0.84183 -0.00957322 0.539659 -0.847847 -0.528733 0.0399551 
-0.965346 -0.180047 0.188921 -0.868038 -0.0360999 0.495185 -0.808665 -0.581571 -0.0885189 
-0.930694 -0.364493 -0.0308899 -0.872782 -0.107349 0.476159 -0.814325 -0.559732 -0.15354 
-0.850586 -0.516065 -0.100898 -0.88041 -0.248597 0.403828 -0.850453 -0.491801 -0.18671 
-0.800513 -0.577114 -0.161614 -0.858249 -0.454692 0.23804 -0.78492 -0.51357 -0.346621 
-0.81163 -0.560627 -0.164174 -0.801046 -0.590653 0.0972319 -0.869932 -0.489404 -0.060846 
-0.772234 -0.635285 -0.00825224 -0.883629 -0.391513 0.256743 -0.774264 -0.627584 -0.0815747 
-0.774525 -0.625725 -0.0926224 -0.759338 -0.634332 -0.145014 -0.799397 -0.593509 -0.0933349 
-0.714599 -0.658711 -0.235475 -0.766721 -0.635693 -0.0896363 -0.727814 -0.628804 -0.273666 
-0.787888 -0.5476 -0.281723 -0.841561 -0.445324 -0.305715 -0.212363 -0.916537 -0.338912 
-0.624304 -0.480244 -0.616125 -0.467993 -0.746044 -0.473709 0.108821 -0.964311 -0.241374 
-0.463117 -0.227692 0.856551 0.430151 0.597212 -0.676985 -0.572599 -0.510381 0.641593 
-0.609895 -0.520332 0.597732 -0.367195 -0.646632 0.668607 -0.663593 -0.540966 0.51672 
-0.511481 -0.649102 0.563075 -0.762505 -0.523006 0.380856 -0.434785 -0.610381 0.662116 
-0.692101 -0.603817 0.395475 -0.865739 -0.442086 0.234639 -0.513377 -0.648914 0.561565 
-0.819847 -0.560786 0.115626 -0.976632 -0.212154 0.034374 -0.686324 -0.633291 0.357634 
-0.866587 -0.498327 0.0263959 -0.9964 -0.0178756 -0.0828661 -0.779135 -0.590242 0.211099 
-0.917697 -0.396011 0.0317351 -0.996061 -0.0103714 -0.0880584 -0.82277 -0.540839 0.174764 
-0.976342 -0.194935 0.0935746 -0.990252 -0.00494881 -0.1392 -0.881996 -0.460753 0.0989375 
-0.995421 -0.0140337 0.0945552 -0.972518 0.00417879 -0.23279 -0.941713 0.177935 -0.28551 
-0.940052 -0.329927 0.0863155 -0.996158 0.0706069 -0.0518025 -0.983862 -0.0236348 -0.177361 
-0.81392 0.429389 -0.391357 -0.962479 -0.220038 0.1588 -0.962716 -0.105378 -0.249144 
-0.636817 -0.617507 0.461681 -0.66835 0.61313 -0.421166 -0.955134 -0.196354 0.22173 
-0.950696 -0.232351 -0.205401 0.510337 0.523968 -0.681919 -0.905311 -0.316795 0.282936 
-0.969474 -0.149562 -0.194295 -0.89469 -0.306713 0.324741 -0.99105 -0.0629773 -0.117698 
-0.979946 -0.0793538 -0.182781 -0.973683 -0.227092 -0.0192606 -0.76428 -0.597689 -0.242163 
-0.0397493 0.344732 0.937859 0.40304 -0.416889 -0.814716 -0.668472 0.314167 0.674125 
-0.567301 0.146338 0.810404 -0.798368 0.212597 0.563392 -0.612128 0.129019 0.780162 
0.692889 -0.00337304 -0.721037 -0.894182 0.0768363 0.44106 -0.729099 0.125596 0.672786 
-0.60817 0.078135 0.789952 -0.905471 0.0355408 0.422917 -0.857896 0.086392 0.506509 
-0.706138 0.0717865 0.704426 -0.954903 -0.0208293 0.296186 -0.874747 0.0502093 0.481971 
-0.76114 0.033088 0.647743 -0.970705 -0.207012 0.121978 -0.893511 -0.0131556 0.448849 
-0.81649 0.0219384 0.576942 -0.910456 -0.41336 -0.0142943 -0.872832 -0.0921113 0.479248 
-0.8614 -0.0183099 0.507596 -0.840993 -0.527637 -0.119708 -0.869433 -0.234863 0.434656 
-0.886194 -0.0570255 0.459791 -0.813055 -0.566378 -0.134753 -0.835414 -0.469268 0.286132 
-0.896197 -0.140595 0.420789 -0.845946 -0.529858 -0.0602168 -0.792881 -0.60493 0.0734729 
-0.908863 -0.316373 0.271802 -0.88116 -0.227335 0.41458 -0.872917 -0.460598 0.160829 
-0.766461 -0.637481 -0.0784576 -0.880019 -0.473378 0.0384719 -0.897126 -0.338297 0.284112 
-0.893474 -0.416644 0.167664 -0.75537 -0.637865 -0.15015 -0.812623 -0.573259 -0.104964 
-0.880649 -0.420955 0.217379 -0.753192 -0.62751 -0.197312 -0.750876 -0.628598 -0.202606 
-0.844005 -0.535572 0.0285904 -0.755928 -0.616367 -0.220601 -0.725666 -0.639642 -0.25351 
-0.772309 -0.615424 -0.157454 -0.768526 -0.576898 -0.276689 -0.757254 -0.621881 -0.199573 
-0.798732 -0.523001 -0.297486 -0.784532 -0.575728 -0.230317 -0.776816 -0.540092 -0.323816 
-0.579162 -0.506364 0.63888 0.459994 0.567862 -0.682597 0.584306 0.473556 -0.659038 
-0.54655 -0.597239 0.587017 -0.68749 -0.499249 0.527358 -0.663508 -0.553952 0.502886 
-0.820251 -0.462029 0.33722 -0.39468 -0.62942 0.669371 -0.705008 -0.545093 0.453692 
-0.868172 -0.416015 0.270572 -0.453121 -0.679731 0.576755 -0.726052 -0.555149 0.405781 
-0.865047 -0.386823 0.319472 -0.58714 -0.659782 0.468993 -0.831879 -0.499817 0.241166 
-0.913371 -0.294537 0.281072 -0.742001 -0.600196 0.298662 -0.917205 -0.391359 0.0746475 
-0.989517 -0.129559 0.0638046 -0.826511 -0.545337 0.139594 -0.966589 -0.255612 0.0191823 
-0.992233 -0.0402794 -0.117688 -0.891824 -0.452307 -0.00828502 -0.99124 -0.119622 -0.055974 
-0.973952 -0.0315097 -0.224553 -0.959852 -0.263911 -0.0950516 -0.989121 -0.0874095 -0.118321 
-0.962868 0.00412409 -0.269941 -0.988704 -0.11441 -0.0968275 -0.974317 -0.0801912 -0.210416 
-0.955456 0.100285 -0.277572 -0.837206 0.358284 -0.41318 -0.992735 -0.0814501 -0.0885627 
-0.960799 -0.0348224 -0.275049 -0.938397 0.176446 -0.297116 -0.773048 0.396614 -0.495071 
-0.978235 -0.0972789 -0.183286 -0.982196 0.0727314 -0.173207 -0.789964 0.417589 -0.448973 
-0.107354 0.640769 -0.760191 -0.948728 -0.153419 -0.276365 -0.650697 -0.480794 0.587733 
-0.32263 0.634245 -0.702598 -0.520603 -0.450034 0.725563 -0.903246 -0.137331 -0.406554 
-0.654811 -0.363807 0.66247 -0.930171 -0.187558 -0.315599 -0.691526 0.490849 0.529961 
-0.347484 0.305873 0.886395 -0.672818 -0.637669 0.375093 -0.422515 0.35987 0.83185 
-0.420147 -0.179912 0.889443 -0.47994 0.331325 0.812331 -0.547554 0.126978 0.82708 
-0.706049 0.283918 0.648757 -0.697282 0.172397 0.695757 -0.836677 0.180679 0.517037 
-0.809426 0.125044 0.573754 -0.594332 0.224646 0.772207 -0.892161 0.0277508 0.450865 
-0.798008 0.117537 0.591074 -0.764011 0.276943 0.582744 -0.896972 -0.00994375 0.441976 
-0.816467 0.0787642 0.571994 -0.827676 0.137518 0.544098 -0.88226 -0.094753 0.461129 
-0.826551 0.0280671 0.562162 -0.836648 -0.0414263 0.546172 -0.874237 -0.290714 0.388839 
-0.841 -0.050136 0.538708 -0.798032 -0.0534157 0.600244 -0.814696 -0.0243606 0.579376 
-0.857294 -0.486376 0.168775 -0.889966 -0.203257 0.408225 -0.859785 -0.156379 0.486122 
-0.832768 -0.0290147 0.552862 -0.831812 -0.554969 -0.00988336 -0.920743 -0.358434 0.154136 
-0.894728 -0.277324 0.350076 -0.837939 -0.10983 0.534598 -0.795641 -0.589764 -0.138324 
-0.88379 -0.467616 -0.0158294 -0.914175 -0.322987 0.244876 -0.857912 -0.225143 0.461841 
-0.776128 -0.58817 -0.227335 -0.805771 -0.576079 -0.13735 -0.906825 -0.421331 -0.0121702 
-0.930474 -0.261978 0.256098 -0.795432 -0.543116 -0.268912 -0.751702 -0.626496 -0.206025 
-0.831511 -0.529759 -0.167166 -0.955165 -0.285783 0.0773818 -0.836734 -0.499227 -0.22505 
-0.744342 -0.615809 -0.258329 -0.788903 -0.578156 -0.20825 -0.947025 -0.321142 0.00331326 
-0.778878 -0.561102 -0.280202 -0.811455 -0.550473 -0.196268 -0.90601 -0.421436 -0.039203 
-0.788317 -0.535778 -0.302488 -0.827184 -0.516523 -0.221294 -0.832177 -0.536222 -0.141238 
-0.849116 -0.426346 -0.31182 -0.771636 -0.597496 -0.218121 -0.707642 -0.643009 -0.292887 
-0.669425 -0.660914 -0.339208 -0.591945 -0.752608 -0.288414 -0.867966 0.108901 -0.484536 
-0.669196 -0.598193 0.440843 -0.618352 -0.544418 0.566789 -0.709517 -0.537715 0.455465 
-0.563532 -0.510138 0.649762 -0.607284 -0.509594 0.609525 -0.738433 -0.491178 0.462019 
-0.577698 -0.594576 0.559236 -0.591853 -0.49356 0.637266 -0.739076 -0.445499 0.505269 
-0.577362 -0.634093 0.514372 -0.660377 -0.498759 0.561375 -0.813152 -0.393636 0.428759 
-0.639021 -0.571961 0.514307 -0.819714 -0.461744 0.338912 -0.926559 -0.319687 0.198214 
-0.682405 -0.549836 0.481668 -0.875474 -0.40368 0.265683 -0.957285 -0.277063 0.0827163 
-0.755773 -0.52493 0.391479 -0.892437 -0.348401 0.286659 -0.961686 -0.25454 0.101834 
-0.904572 -0.395801 0.158404 -0.944348 -0.24359 0.221069 -0.983492 -0.168332 0.0663897 
-0.96303 -0.26902 -0.0141735 -0.987472 -0.140387 0.0720516 -0.997583 0.0151947 -0.067803 
-0.967882 -0.242768 -0.0653319 -0.98855 -0.089327 -0.121615 -0.973897 0.146095 -0.173729 
-0.968504 -0.244509 -0.0470611 -0.959614 -0.0282138 -0.279901 -0.921384 0.234205 -0.31016 
-0.792974 0.429964 -0.431652 -0.966632 -0.238243 -0.0941415 -0.939629 0.057386 -0.337347 
-0.850376 0.307515 -0.426961 -0.737418 0.480412 -0.474782 -0.968033 -0.152381 -0.199229 
-0.936811 0.154266 -0.313987 -0.798603 0.310585 -0.515529 -0.594314 0.440179 -0.673078 
-0.964397 0.00179292 -0.264453 -0.953678 0.156226 -0.257085 -0.730469 0.298386 -0.614314 
-0.97332 0.117431 -0.197125 -0.0946684 -0.692442 0.715236 -0.0642111 0.590068 -0.804796 
-0.970811 0.0310371 0.237827 -0.407149 -0.702449 0.583777 -0.907611 0.419731 -0.00827968 
-0.899099 -0.104885 0.424995 -0.185222 -0.829712 -0.526564 -0.198578 -0.557116 -0.806342 
-0.967628 -0.12717 0.217999 -0.0805292 0.546099 0.833841 -0.90168 0.100744 0.420504 
-0.496155 0.421883 0.758845 -0.572668 0.139807 0.807778 -0.598288 0.31467 0.736908 
-0.693742 0.258323 0.672303 -0.915749 -0.017474 -0.401371 -0.734101 0.204069 0.647651 
-0.73025 0.173229 0.660853 -0.941253 0.0331936 -0.336066 -0.823092 0.0851584 0.561487 
-0.788837 0.0808126 0.609266 -0.72869 0.134071 0.671592 -0.579879 0.0213789 0.814422 
-0.837977 -0.00795696 0.545648 -0.839784 0.0570125 0.539919 -0.762352 0.0872823 0.64125 
-0.607484 0.0353199 0.793547 -0.87962 -0.134359 0.456306 -0.865818 0.0178865 0.50004 
-0.809772 0.0391892 0.585434 -0.68714 0.017288 0.726319 -0.932674 -0.243559 0.266077 
-0.888894 -0.102667 0.446459 -0.824404 -0.0599555 0.562817 -0.781531 -0.0525958 0.621645 
-0.936472 -0.335628 0.101853 -0.921484 -0.193004 0.33707 -0.845497 -0.181618 0.502145 
-0.852191 -0.0964134 0.514272 -0.87462 -0.48272 -0.0449586 -0.947516 -0.313603 0.0621777 
-0.912498 -0.241882 0.329909 -0.903745 -0.1149 0.412362 -0.800086 -0.586194 -0.127436 
-0.897015 -0.432154 -0.0927767 -0.947018 -0.275126 0.165718 -0.93075 -0.144892 0.335724 
-0.781859 -0.591363 -0.197451 -0.859416 -0.482117 -0.170196 -0.94464 -0.311513 0.103032 
-0.932876 -0.240374 0.26826 -0.810791 -0.540212 -0.225363 -0.840262 -0.505252 -0.196672 
-0.930712 -0.365729 -0.00418526 -0.912215 -0.358358 0.198603 -0.863186 -0.460885 -0.20614 
-0.870421 -0.471519 -0.141551 -0.89532 -0.438364 0.0789902 -0.862969 -0.436286 -0.254832 
-0.803235 -0.550651 -0.227148 -0.844156 -0.533502 -0.0527006 -0.796705 -0.416582 -0.437858 