# vtk DataFile Version 4.0
vtk output
ASCII
DATASET UNSTRUCTURED_GRID
POINTS 25412 double
-107.934 104.32 59.3346 -100.666 97.291 42.6748 -83.0288 81.2665 -1.61483 
-94.1553 92.2604 28.156 -88.4325 88.2294 15.7663 -75.6479 74.2038 -15.797 
-81.7578 81.1333 6.17895 -84.9723 83.1322 14.6712 -107.194 106.119 74.2249 
-67.0893 64.0096 -22.2214 -67.7842 68.0074 -20.0562 -66.1882 62.9768 -21.8727 
-66.1572 63.9763 -21.8607 -66.9763 63.9763 -19.7437 -66.8832 66.9746 -19.7076 
-92.3506 90.9613 48.3263 -97.9605 94.9591 63.1937 -66.0753 62.9435 -19.395 
-66.0442 63.943 -19.383 -71.623 68.9402 -4.50358 -71.5919 69.9397 -4.49156 
-97.0283 94.9258 63.5544 -73.7303 72.8714 6.85105 -73.6993 73.8708 6.86306 
-71.3152 67.8409 2.91753 -70.4339 69.8398 0.824512 -72.7982 72.8381 7.21171 
-73.6174 72.8381 9.32875 -73.5863 73.8375 9.34077 -74.3744 74.837 11.4698 
-85.2552 82.7327 48.6378 -69.0613 65.6422 13.5256 -68.9992 67.6411 13.5497 
-68.1292 65.6089 13.8863 -83.9334 80.5673 58.8852 -95.848 92.5606 90.7851 
-82.12 82.5329 57.1529 -90.0122 88.4962 80.8731 -97.1672 95.4924 100.011 
-89.0801 88.4629 81.2338 -58.8332 56.4474 2.87916 -65.9882 63.4435 22.0167 
-67.1126 65.3092 36.1857 -74.2675 72.3053 55.3232 -98.0657 97.2915 119.135 
-50.2633 50.2842 -5.97488 -45.3597 46.2531 -16.2475 -45.7891 44.1211 -4.24369 
-48.1845 46.1199 2.13149 -94.2977 91.095 125.461 -47.2524 46.0866 2.49215 
-50.4047 50.0844 11.0084 -50.3737 51.0839 11.0204 -49.4726 50.0511 11.3691 
-71.7567 71.0395 70.8988 -43.699 43.9879 1.43304 -95.391 93.9601 139.642 
-87.335 85.9313 120.853 -89.7924 85.9313 127.204 -37.1994 34.9263 -10.6561 
-37.1683 35.9257 -10.6441 -37.1373 36.9251 -10.632 -37.1062 37.9246 -10.62 
-57.8762 54.9152 44.6275 -80.8552 79.9013 106.322 -38.6005 38.8907 -3.8962 
-104.458 103.821 175.078 -68.5198 66.7753 84.3212 -61.2829 58.7465 67.6493 
-44.4958 41.7226 25.4648 -50.8316 48.7187 42.4853 -43.4818 40.6565 28.2911 
-45.784 45.6538 34.7023 -42.5497 40.6232 28.6518 -56.8596 54.6155 66.9269 
-46.4393 43.5883 41.7508 -30.3781 29.5627 1.71929 -34.3497 33.5605 12.3526 
-45.5383 42.5555 42.0994 -45.5072 43.555 42.1114 -45.4762 44.5544 42.1234 
-44.6062 42.5222 42.4601 -44.5751 43.5217 42.4721 -44.5441 44.5211 42.4841 
-44.513 45.5206 42.4961 -43.6741 42.4889 42.8207 -43.643 43.4884 42.8327 
-43.6119 44.4878 42.8448 -84.0334 84.4323 153.773 -33.847 31.3951 24.7171 
-97.3096 94.3269 197.316 -104.433 102.322 216.465 -73.3674 70.3069 135.994 
-85.282 82.3003 167.893 -90.7168 88.2636 185.263 -42.1263 40.257 58.0236 
-35.6776 33.2275 43.4808 -35.6465 34.227 43.4928 -35.6155 35.2264 43.5048 
-37.9487 39.2242 49.9041 -49.9875 47.2198 81.7559 -34.7455 33.1942 43.8415 
-34.7144 34.1937 43.8535 -33.8642 35.1931 41.7485 -34.6834 35.1931 43.8655 
-38.717 37.192 54.4748 -40.2932 39.1909 58.7329 -26.7205 24.1659 25.0405 
-27.5086 25.1654 27.1696 -27.4776 26.1648 27.1816 -28.2967 26.1648 29.2987 
-33.7823 34.1604 44.2141 -33.7513 35.1598 44.2262 -24.2122 22.1337 21.1431 
-25.0003 23.1332 23.2721 -24.9693 24.1326 23.2842 -25.7884 24.1326 25.4012 
-26.6076 24.1326 27.5183 -25.7574 25.1321 25.4132 -26.5765 25.1321 27.5303 
-27.3957 25.1321 29.6473 -25.7263 26.1315 25.4252 -26.5455 26.1315 27.5423 
-27.3646 26.1315 29.6593 -28.1838 26.1315 31.7764 -26.5144 27.131 27.5543 
-27.3335 27.131 29.6714 -28.1527 27.131 31.7884 -28.9718 27.131 33.9054 
-29.791 27.131 36.0225 -27.3025 28.1304 29.6834 -29.7599 28.1304 36.0345 
-30.5791 28.1304 38.1516 -79.7826 79.1021 170.021 -12.9728 11.1065 -6.15007 
-20.1277 18.1027 12.9875 -20.0967 19.1021 12.9995 -20.9158 19.1021 15.1165 
-20.8848 20.1016 15.1286 -21.7039 20.1016 17.2456 -22.5231 20.1016 19.3627 
-22.492 21.101 19.3747 -23.3112 21.101 21.4917 -22.461 22.1004 19.3867 
-23.2801 22.1004 21.5037 -24.0993 22.1004 23.6208 -23.2491 23.0999 21.5158 
-24.0682 23.0999 23.6328 -24.8874 23.0999 25.7498 -25.7065 23.0999 27.8669 
-23.218 24.0993 21.5278 -24.0372 24.0993 23.6448 -24.8563 24.0993 25.7619 
-25.6755 24.0993 27.8789 -26.4946 24.0993 29.996 -24.0061 25.0988 23.6568 
-24.8253 25.0988 25.7739 -25.6444 25.0988 27.8909 -26.4636 25.0988 30.008 
-27.2827 25.0988 32.125 -24.7942 26.0982 25.7859 -25.6133 26.0982 27.9029 
-26.4325 26.0982 30.02 -27.2516 26.0982 32.137 -28.0708 26.0982 34.2541 
-25.5823 27.0977 27.915 -26.4014 27.0977 30.032 -27.2206 27.0977 32.1491 
-28.0397 27.0977 34.2661 -28.8589 27.0977 36.3832 -29.678 27.0977 38.5002 
-27.1895 28.0971 32.1611 -28.0087 28.0971 34.2781 -28.8278 28.0971 36.3952 
-29.647 28.0971 38.5122 -30.4661 28.0971 40.6293 -27.9776 29.0966 34.2901 
-28.7968 29.0966 36.4072 -29.6159 29.0966 38.5242 -30.4351 29.0966 40.6413 
-31.2542 29.0966 42.7583 -28.7657 30.096 36.4192 -29.5849 30.096 38.5363 
-30.404 30.096 40.6533 -31.2232 30.096 42.7703 -32.0423 30.096 44.8874 
-32.8304 31.0955 47.0165 -33.6496 31.0955 49.1335 -33.6185 32.0949 49.1455 
-34.4377 32.0949 51.2626 -67.8171 65.0766 140.575 -69.3312 69.0744 144.857 
-18.4386 16.0705 11.2071 -18.4075 17.0699 11.2191 -19.2267 17.0699 13.3361 
-19.1956 18.0694 13.3481 -20.0148 18.0694 15.4652 -19.1646 19.0688 13.3602 
-19.9837 19.0688 15.4772 -20.8029 19.0688 17.5942 -19.1335 20.0683 13.3722 
-19.9527 20.0683 15.4892 -20.7718 20.0683 17.6063 -21.591 20.0683 19.7233 
-22.4101 20.0683 21.8404 -19.9216 21.0677 15.5012 -20.7408 21.0677 17.6183 
-21.5599 21.0677 19.7353 -22.3791 21.0677 21.8524 -23.1982 21.0677 23.9694 
-20.7097 22.0672 17.6303 -21.5289 22.0672 19.7473 -22.348 22.0672 21.8644 
-23.1672 22.0672 23.9814 -23.9863 22.0672 26.0985 -21.4978 23.0666 19.7594 
-22.317 23.0666 21.8764 -23.1361 23.0666 23.9935 -23.9553 23.0666 26.1105 
-24.7744 23.0666 28.2276 -25.5936 23.0666 30.3446 -23.1051 24.066 24.0055 
-23.9242 24.066 26.1225 -24.7434 24.066 28.2396 -25.5625 24.066 30.3566 
-26.3817 24.066 32.4737 -23.8932 25.0655 26.1345 -24.7123 25.0655 28.2516 
-25.5314 25.0655 30.3686 -26.3506 25.0655 32.4857 -27.1697 25.0655 34.6027 
-24.6812 26.0649 28.2636 -25.5004 26.0649 30.3807 -26.3195 26.0649 32.4977 
-27.1387 26.0649 34.6147 -27.9578 26.0649 36.7318 -25.4693 27.0644 30.3927 
-26.2885 27.0644 32.5097 -27.1076 27.0644 34.6268 -27.9268 27.0644 36.7438 
-28.7459 27.0644 38.8609 -29.5651 27.0644 40.9779 -27.0766 28.0638 34.6388 
-27.8957 28.0638 36.7558 -28.7149 28.0638 38.8729 -29.534 28.0638 40.9899 
-30.3532 28.0638 43.107 -27.8647 29.0633 36.7678 -28.6838 29.0633 38.8849 
-29.503 29.0633 41.0019 -30.3221 29.0633 43.119 -31.1413 29.0633 45.236 
-28.6528 30.0627 38.8969 -29.4719 30.0627 41.014 -30.2911 30.0627 43.131 
-31.1102 30.0627 45.2481 -31.9294 30.0627 47.3651 -32.7485 30.0627 49.4822 
-30.26 31.0622 43.143 -31.0792 31.0622 45.2601 -31.8983 31.0622 47.3771 
-32.7175 31.0622 49.4942 -33.5366 31.0622 51.6112 -31.0481 32.0616 45.2721 
-31.8673 32.0616 47.3891 -32.6864 32.0616 49.5062 -33.5056 32.0616 51.6232 
-34.3247 32.0616 53.7403 -32.6554 33.0611 49.5182 -33.4745 33.0611 51.6352 
-34.2937 33.0611 53.7523 -35.1128 33.0611 55.8693 -33.4435 34.0605 51.6473 
-34.2626 34.0605 53.7643 -35.0818 34.0605 55.8814 -35.9009 34.0605 57.9984 
-36.72 34.0605 60.1155 -66.9161 64.0439 140.924 -66.885 65.0433 140.936 
-67.7042 65.0433 143.053 -67.6731 66.0428 143.065 -17.5065 16.0372 11.5677 
-18.3256 16.0372 13.6848 -17.4754 17.0366 11.5797 -18.2946 17.0366 13.6968 
-19.1137 17.0366 15.8138 -17.4444 18.0361 11.5917 -18.2635 18.0361 13.7088 
-19.0827 18.0361 15.8258 -19.9018 18.0361 17.9429 -17.4133 19.0355 11.6038 
-18.2325 19.0355 13.7208 -19.0516 19.0355 15.8379 -19.8708 19.0355 17.9549 
-20.6899 19.0355 20.072 -21.5091 19.0355 22.189 -19.0206 20.035 15.8499 
-19.8397 20.035 17.9669 -20.6589 20.035 20.084 -21.478 20.035 22.201 
-22.2972 20.035 24.3181 -19.8087 21.0344 17.9789 -20.6278 21.0344 20.096 
-21.447 21.0344 22.213 -22.2661 21.0344 24.3301 -23.0853 21.0344 26.4471 
-20.5968 22.0339 20.108 -21.4159 22.0339 22.2251 -22.2351 22.0339 24.3421 
-23.0542 22.0339 26.4591 -23.8734 22.0339 28.5762 -21.3849 23.0333 22.2371 
-22.204 23.0333 24.3541 -23.0232 23.0333 26.4712 -23.8423 23.0333 28.5882 
-24.6615 23.0333 30.7053 -25.4806 23.0333 32.8223 -22.9921 24.0327 26.4832 
-23.8113 24.0327 28.6002 -24.6304 24.0327 30.7173 -25.4496 24.0327 32.8343 
-26.2687 24.0327 34.9514 -23.7802 25.0322 28.6122 -24.5993 25.0322 30.7293 
-25.4185 25.0322 32.8463 -26.2376 25.0322 34.9634 -27.0568 25.0322 37.0804 
-24.5683 26.0316 30.7413 -25.3874 26.0316 32.8584 -26.2066 26.0316 34.9754 
-27.0257 26.0316 37.0925 -27.8449 26.0316 39.2095 -28.664 26.0316 41.3266 
-26.1755 27.0311 34.9874 -26.9947 27.0311 37.1045 -27.8138 27.0311 39.2215 
-28.633 27.0311 41.3386 -29.4521 27.0311 43.4556 -26.9636 28.0305 37.1165 
-27.7828 28.0305 39.2335 -28.6019 28.0305 41.3506 -29.4211 28.0305 43.4676 
-30.2402 28.0305 45.5847 -27.7517 29.03 39.2456 -28.5709 29.03 41.3626 
-29.39 29.03 43.4796 -30.2092 29.03 45.5967 -31.0283 29.03 47.7137 
-28.5398 30.0294 41.3746 -29.359 30.0294 43.4917 -30.1781 30.0294 45.6087 
-30.9973 30.0294 47.7258 -31.8164 30.0294 49.8428 -32.6356 30.0294 51.9599 
-30.1471 31.0289 45.6207 -30.9662 31.0289 47.7378 -31.7854 31.0289 49.8548 
-32.6045 31.0289 51.9719 -33.4237 31.0289 54.0889 -30.9352 32.0283 47.7498 
-31.7543 32.0283 49.8668 -32.5735 32.0283 51.9839 -33.3926 32.0283 54.1009 
-34.2118 32.0283 56.218 -31.7233 33.0278 49.8789 -32.5424 33.0278 51.9959 
-33.3616 33.0278 54.113 -34.1807 33.0278 56.23 -34.9999 33.0278 58.3471 
-35.819 33.0278 60.4641 -33.3305 34.0272 54.125 -34.1496 34.0272 56.242 
-34.9688 34.0272 58.3591 -35.7879 34.0272 60.4761 -36.6071 34.0272 62.5932 
-34.1186 35.0266 56.254 -34.9377 35.0266 58.3711 -35.7569 35.0266 60.4881 
-36.576 35.0266 62.6052 -37.3952 35.0266 64.7222 -35.7258 36.0261 60.5001 
-36.545 36.0261 62.6172 -37.3641 36.0261 64.7342 -66.741 66.0095 143.426 
-15.8174 14.005 9.78729 -15.7863 15.0044 9.79931 -16.6054 15.0044 11.9164 
-17.4246 15.0044 14.0334 -15.7552 16.0039 9.81132 -16.5744 16.0039 11.9284 
-17.3935 16.0039 14.0454 -18.2127 16.0039 16.1625 -16.5433 17.0033 11.9404 
[...]
POINT_DATA 25412
VECTORS DTMRIFiberOrientation float
-0.878061 0.134577 -0.459236 -0.495364 -0.729897 -0.471025 -0.576626 -0.200728 -0.791967 
-0.311405 -0.0226158 0.950008 -0.413764 -0.885422 -0.211724 -0.749538 0.633376 -0.192426 
-0.532458 0.116631 -0.838383 -0.347275 -0.356023 0.867553 -0.335126 -0.714969 0.613604 
-0.931529 0.356255 0.0730454 -0.650222 -0.638666 -0.411482 -0.980497 -0.149373 0.12772 
-0.739819 -0.657328 0.143482 -0.204637 0.119005 -0.971577 -0.0938823 -0.958838 -0.267985 
-0.977084 0.0489669 -0.207146 -0.806137 0.0878787 0.585167 -0.774319 0.202243 -0.599606 
-0.908259 -0.0418268 -0.416312 -0.884657 -0.451847 -0.114965 -0.329524 0.321174 0.887841 
-0.933626 -0.284946 0.217137 -0.364718 0.894643 0.258057 -0.855332 0.515795 0.0485999 
-0.9602 -0.103349 0.25949 -0.954198 -0.0105327 -0.298991 -0.66063 -0.102869 -0.74363 
-0.851118 0.0304559 -0.52409 -0.508507 0.116996 -0.853072 -0.915978 -0.364505 -0.167693 
-0.502577 -0.408522 -0.761923 0.240931 -0.910203 -0.336872 -0.0696276 -0.982203 -0.174439 
-0.466527 0.87309 0.141658 -0.7378 -0.670664 -0.0765569 0.264743 -0.923462 -0.27772 
-0.847964 0.00671589 -0.530011 -0.267755 0.954571 0.13077 -0.558038 -0.82825 -0.0509473 
0.104348 -0.939825 -0.32533 -0.363947 0.857896 0.362709 -0.115816 0.924003 0.364424 
-0.205044 0.930125 0.304672 0.317784 0.94668 0.0530169 -0.548408 0.828554 0.112904 
-0.226756 0.9386 0.260022 -0.498093 0.83264 -0.242102 0.0715455 0.983857 -0.164031 
-0.642444 0.699735 0.312469 -0.119632 -0.970434 -0.209633 -0.52715 0.782974 0.33025 
-0.531344 0.823537 0.198645 0.537223 -0.841283 -0.0602882 0.0101969 -0.999055 -0.0422585 
-0.795282 -0.433855 -0.423434 0.0182741 -0.998042 -0.059818 -0.382089 0.873956 0.300347 
-0.611829 0.723605 0.319469 0.208758 -0.893251 -0.398148 -0.22935 0.156239 -0.960723 
0.480608 -0.876669 0.0216049 0.486743 -0.650323 -0.583233 -0.815232 0.200212 0.543426 
-0.256304 -0.66384 -0.702584 -0.769795 0.619056 0.155514 -0.496123 0.622183 0.605599 
0.0211897 0.999397 0.0275058 -0.221234 -0.913698 0.340898 -0.0150886 -0.798091 -0.602348 
0.0211673 0.995827 -0.0887701 0.174757 0.958707 -0.224367 -0.431229 -0.893345 0.126392 
-0.0862995 -0.732398 -0.675386 -0.133158 -0.00349089 0.991089 -0.722756 -0.248402 -0.644919 
-0.397969 -0.100517 0.911876 0.347925 0.912384 -0.215644 -0.805081 0.535778 0.254531 
-0.324955 0.127236 0.937131 0.0125557 -0.113867 -0.993417 -0.499692 -0.359061 0.788278 
-0.412947 -0.0694395 0.908104 -0.355377 0.0191783 -0.934526 -0.654299 -0.108165 -0.74846 
-0.738704 -0.647606 0.186876 -0.336105 0.255261 -0.906573 0.0549524 -0.344326 0.93724 
-0.246094 -0.361391 0.899352 -0.127053 0.799469 -0.587118 0.755714 -0.626131 -0.191981 
-0.0111927 0.962018 -0.272758 -0.184645 0.982749 0.0105151 0.48045 -0.761977 -0.434234 
-0.476466 0.876206 0.0724066 -0.100066 0.864679 0.492258 -0.355821 0.84039 -0.408823 
-0.509553 -0.837348 0.198002 -0.434925 -0.681205 0.588898 0.285486 0.287217 -0.914333 
-0.599612 -0.497495 0.626869 -0.871031 0.439729 -0.218959 -0.506424 -0.857236 -0.093175 
-0.582674 -0.811046 0.0519252 0.48661 0.212129 -0.847474 -0.56485 -0.745472 0.353859 
-0.510918 -0.203578 -0.835176 -0.528596 0.0441854 0.847723 0.311069 -0.890612 -0.331732 
0.109035 0.89812 0.426019 -0.70483 0.410967 0.578205 0.455866 -0.666351 -0.590053 
-0.59614 -0.748105 -0.291472 -0.725686 -0.625993 -0.285504 -0.555563 0.82323 0.1168 
-0.121986 -0.945475 -0.301988 0.220461 -0.917007 -0.332407 -0.271885 -0.886962 -0.373331 
-0.286134 -0.889487 -0.356287 0.0328056 0.944376 0.327227 -0.272843 -0.875783 -0.398198 
-0.304499 -0.812438 -0.497217 0.493771 -0.824143 -0.277449 -0.272311 -0.881564 -0.385607 
-0.296281 -0.8081 -0.509109 -0.0610424 -0.959432 -0.275251 0.154021 0.902839 0.401446 
-0.290759 -0.846321 -0.446318 0.681019 -0.676361 -0.280623 -0.177075 0.917976 0.354913 
-0.284572 -0.853743 -0.436052 -0.327176 -0.870214 -0.368352 0.0962806 0.986478 0.132632 
0.150611 0.966979 0.205592 -0.473266 0.857131 -0.203335 0.0928005 0.995448 -0.0216949 
0.499862 -0.820411 -0.277603 0.680749 -0.645532 -0.346221 0.034988 0.957002 0.287962 
0.493216 -0.821373 -0.286504 0.0925314 -0.992082 0.084924 -0.31251 -0.880965 -0.3553 
-0.29182 -0.884839 -0.363182 -0.365461 -0.874508 -0.318864 0.0704997 0.927003 0.368369 
-0.26569 -0.935376 -0.233409 -0.34119 -0.913279 -0.222511 0.118341 -0.992369 0.034615 
-0.338016 -0.911554 -0.234125 -0.359401 -0.880716 -0.308496 -0.314913 -0.926792 -0.204663 
0.460418 -0.886209 -0.0514618 -0.313652 -0.908119 -0.277387 -0.364528 -0.856861 -0.364566 
-0.298845 -0.921544 -0.247887 -0.359991 -0.888483 -0.284615 -0.19227 -0.945588 -0.26248 
-0.345314 -0.861048 -0.373304 -0.315362 -0.895563 -0.313869 -0.395099 -0.833567 -0.386087 
-0.385705 -0.851695 -0.354748 -0.296654 -0.882564 -0.364798 -0.336405 -0.866655 -0.36843 
-0.386411 -0.814385 -0.43297 -0.349716 -0.867831 -0.352942 -0.346556 -0.863647 -0.366078 
-0.338294 -0.854425 -0.394353 -0.401098 -0.811068 -0.42578 -0.280169 -0.90498 -0.32018 
-0.332149 -0.873386 -0.356194 -0.385985 -0.831775 -0.398957 -0.356108 -0.859824 -0.36591 
-0.244402 -0.936447 -0.251662 -0.215276 -0.92856 -0.302379 -0.37593 -0.852152 -0.364024 
-0.332478 -0.862823 -0.380781 -0.380764 -0.792637 -0.476178 0.120304 0.942624 0.311426 
0.272885 0.956545 0.102738 0.305228 0.88385 0.354464 -0.344531 -0.782827 -0.51815 
-0.299464 -0.801656 -0.517367 -0.57791 -0.351964 0.736302 -0.644791 -0.109898 0.756418 
-0.0506539 0.885766 0.46136 0.133393 0.841213 0.523991 0.100251 0.969905 0.221887 
-0.715633 -0.635077 -0.29077 -0.47837 -0.87722 -0.0405851 -0.67815 -0.0963264 0.728583 
0.708275 -0.197868 -0.677639 -0.13398 0.679295 -0.721532 0.506907 -0.72687 -0.463363 
-0.108059 -0.928052 -0.356431 -0.115906 0.910317 0.397353 -0.316409 -0.895388 -0.313315 
-0.247927 -0.913097 -0.323707 -0.405983 -0.816529 -0.410436 0.0443552 0.951396 0.30476 
-0.378211 -0.840815 -0.38728 -0.359092 -0.899423 -0.249182 0.496941 -0.81043 -0.310247 
-0.318019 -0.890074 -0.326546 -0.36298 -0.896721 -0.253251 -0.374702 -0.901592 -0.216171 
-0.427931 -0.866782 -0.256054 0.0985499 0.963097 0.250463 -0.338974 -0.923159 -0.18131 
-0.388915 -0.881019 -0.269352 -0.427315 -0.849749 -0.308752 -0.341777 -0.938974 -0.0389509 
0.318798 -0.938144 -0.135108 -0.390711 -0.864897 -0.315115 -0.403691 -0.851994 -0.333376 
-0.354527 -0.931678 -0.0792889 -0.367432 -0.92606 -0.0860628 -0.340578 -0.877182 -0.338464 
-0.34992 -0.881119 -0.318096 -0.383388 -0.913764 -0.134343 -0.393765 -0.895379 -0.207956 
-0.362599 -0.922134 -0.134877 -0.343825 -0.938729 -0.0239023 -0.393136 -0.89948 -0.190737 
-0.408478 -0.866309 -0.287498 -0.380963 -0.916282 -0.123667 0.404452 0.912694 0.0583765 
-0.437872 -0.874492 -0.208641 -0.410066 -0.856273 -0.314073 -0.383728 -0.904035 -0.188343 
-0.448655 -0.873735 -0.187873 -0.453996 -0.852051 -0.260569 -0.364213 -0.911022 -0.193357 
-0.389262 -0.874949 -0.287993 -0.448879 -0.840635 -0.303051 -0.417177 -0.85759 -0.300835 
-0.376195 -0.883122 -0.280309 -0.409078 -0.86705 -0.284395 -0.445616 -0.821891 -0.354853 
-0.386443 -0.862895 -0.32569 -0.381181 -0.870453 -0.31147 -0.415785 -0.848124 -0.328342 
-0.387101 -0.87554 -0.289105 -0.41764 -0.838688 -0.34954 -0.354012 -0.879335 -0.318505 
-0.401752 -0.848815 -0.343669 -0.398543 -0.856099 -0.329027 -0.424927 -0.818237 -0.387201 
-0.40674 -0.818716 -0.405298 -0.371234 -0.848302 -0.377583 -0.403349 -0.831126 -0.382805 
-0.404261 -0.815873 -0.413429 -0.365766 -0.820507 -0.439298 -0.425611 -0.806384 -0.410609 
0.394182 0.818798 0.417362 -0.337927 -0.831573 -0.440785 -0.329918 -0.831799 -0.44639 
-0.347203 -0.837696 -0.421564 -0.490291 -0.774542 -0.399625 -0.328122 -0.81911 -0.470525 
0.233571 0.867528 0.439135 0.0960582 0.885728 0.454156 -0.437487 -0.776295 -0.453841 
-0.365178 -0.795805 -0.483052 -0.382239 -0.811223 -0.442505 0.537203 -0.551002 -0.638599 
-0.070122 0.777791 0.6246 0.366279 0.773138 0.517782 0.255885 0.803221 0.53792 
-0.282909 -0.83277 -0.475874 -0.302499 0.659987 0.687686 -0.194877 0.769085 0.608713 
-0.179839 -0.878449 -0.442703 -0.0873909 -0.803284 -0.58915 -0.868316 0.411925 0.276307 
-0.381883 0.791246 0.477593 -0.372049 0.814783 0.444644 -0.201776 0.723993 0.659637 
-0.274587 0.769807 0.576194 -0.225406 0.69512 -0.682642 -0.970877 -0.208909 0.117278 
-0.739064 -0.623719 -0.254479 -0.967175 -0.236307 0.0934424 -0.2445 -0.913217 -0.325965 
-0.440736 -0.894735 -0.0721191 -0.196567 -0.948372 -0.248902 -0.424554 -0.888394 -0.174668 
-0.49388 -0.867948 -0.0524399 -0.0532523 -0.975368 -0.214061 -0.410596 -0.86894 -0.276322 
-0.472441 -0.857216 -0.204891 -0.420552 -0.907267 -0.00141213 -0.445684 0.857786 0.256064 
-0.391535 -0.853184 -0.34464 -0.448803 -0.851456 -0.27129 -0.439496 -0.876696 -0.195571 
-0.453387 -0.887067 0.0869018 -0.374205 -0.919986 0.116599 -0.433068 -0.847398 -0.307196 
-0.456237 -0.842527 -0.28635 -0.438525 -0.897974 0.0365926 -0.438906 -0.898329 -0.0191518 
-0.419183 -0.906719 0.0463319 -0.454757 -0.83506 -0.309629 -0.39649 -0.917479 -0.0320529 
-0.482788 -0.858763 -0.171589 -0.392197 -0.918446 0.051375 -0.40944 -0.911819 0.0307464 
-0.415374 -0.894583 -0.16488 -0.440307 -0.858035 -0.264398 -0.37325 -0.927636 0.013258 
-0.410741 -0.911057 0.035596 -0.387795 -0.912979 -0.126828 -0.421575 -0.847492 -0.322541 
-0.371951 -0.926074 -0.0635524 -0.434948 -0.899262 -0.0463463 -0.429858 -0.89371 -0.128472 
-0.43393 -0.89248 -0.123225 -0.451 -0.891739 -0.0374106 -0.439704 -0.882267 -0.168123 
-0.467649 -0.877696 -0.104668 -0.440487 -0.892571 -0.0963702 -0.482667 -0.875782 0.00615566 
-0.417858 -0.908512 0.000433714 -0.469861 -0.877064 -0.0999439 -0.477456 -0.876272 -0.0646797 
-0.500076 -0.862221 -0.0806214 -0.389898 -0.919098 -0.0569007 -0.420678 -0.907191 -0.00588498 
-0.478837 -0.870953 -0.110255 -0.46269 -0.860411 -0.213566 -0.415815 -0.896608 -0.152287 
-0.419723 -0.904329 -0.0776043 -0.435686 -0.897495 -0.0684162 0.396208 0.91601 0.0628133 
-0.412847 -0.884238 -0.218357 -0.429325 -0.879033 -0.20732 -0.455559 -0.877712 -0.148619 
-0.412887 -0.886221 -0.210085 -0.449232 -0.87244 -0.192453 -0.440983 -0.848357 -0.292959 
-0.476714 -0.849729 -0.225177 -0.437938 -0.849536 -0.294108 -0.425026 -0.853722 -0.300852 
-0.431889 -0.840602 -0.326894 -0.468645 -0.828109 -0.307583 -0.428415 -0.843446 -0.324128 
-0.392074 -0.844556 -0.364697 -0.453221 -0.81476 -0.361604 -0.456715 -0.829967 -0.320258 
-0.406842 -0.830118 -0.381292 -0.390855 -0.83813 -0.380487 -0.443295 -0.810182 -0.383529 
-0.498982 -0.797105 -0.34006 -0.378626 -0.840119 -0.388384 -0.490672 -0.8108 -0.319131 
-0.36702 -0.821032 -0.437267 -0.496764 -0.785645 -0.368764 -0.418256 -0.809731 -0.41158 
-0.462477 -0.812752 -0.354329 -0.474689 -0.792921 -0.382031 -0.365457 -0.818139 -0.443949 
-0.446571 -0.798441 -0.403815 -0.382571 -0.809787 -0.444841 -0.396691 -0.79932 -0.451358 
-0.292936 -0.794908 -0.531329 -0.302755 -0.833618 -0.461975 -0.247419 -0.791467 -0.558895 
-0.300255 -0.812034 -0.500447 -0.306088 -0.771065 -0.558362 -0.276831 -0.786124 -0.552606 
-0.402876 -0.778517 -0.481251 -0.154006 -0.836991 -0.525098 -0.26142 -0.808973 -0.526519 
-0.213992 -0.753705 -0.621398 -0.337421 -0.777419 -0.530817 -0.392606 -0.73422 -0.553879 
-0.144526 -0.882528 -0.4475 -0.206285 -0.657891 -0.724311 -0.107011 -0.769195 -0.62999 
0.389939 0.740413 0.547482 0.565776 0.760039 0.319747 -0.539509 0.502362 0.675694 
-0.496432 0.459406 0.736547 -0.523582 -0.792464 -0.312832 -0.983696 -0.10233 -0.147886 
-0.160381 -0.985268 0.0593728 -0.0678957 -0.99514 0.0713266 -0.384903 -0.919403 -0.0809194 
-0.476401 -0.831124 0.286837 0.186212 -0.980378 0.0646819 -0.339513 -0.933575 -0.114756 
-0.491835 -0.838144 0.235827 -0.580338 -0.809207 0.0916032 -0.292796 -0.948956 -0.117273 
-0.490117 -0.866703 0.0927968 -0.578442 -0.805572 0.128289 -0.543975 -0.828392 0.133635 
-0.243408 -0.958322 -0.149572 -0.492311 -0.864788 -0.098853 0.543403 0.833277 -0.101799 
-0.51997 -0.845145 0.12394 -0.51949 -0.849458 0.0924741 -0.472776 -0.847991 -0.239571 
-0.503299 -0.86411 0.00195725 -0.539717 -0.840934 0.0391946 -0.519138 -0.853965 0.0351927 
-0.452197 -0.887755 0.0860714 -0.540094 -0.841506 -0.0129001 -0.533369 -0.830905 -0.158472 
-0.491177 -0.867785 0.0754631 -0.480546 -0.866818 0.133049 -0.54637 -0.837496 0.00895105 
-0.45023 -0.890226 0.0692159 0.426203 0.897457 -0.113675 -0.494273 -0.860842 0.121019 
-0.519149 -0.854673 0.00419474 -0.473524 -0.879954 0.0381443 -0.478525 -0.871823 0.104587 
-0.479156 -0.877654 -0.011543 -0.458553 -0.888288 -0.0259465 -0.473402 -0.879734 0.0442638 
-0.456729 -0.889577 0.0071285 -0.510038 -0.860071 -0.0118064 -0.458961 -0.888397 -0.0102674 
-0.458326 -0.888634 0.0163295 -0.470001 -0.880342 -0.0640047 -0.500626 -0.858935 -0.107725 
-0.474638 -0.876615 -0.0791474 -0.508685 -0.860948 -0.0027684 -0.495594 -0.861472 -0.11069 
-0.484874 -0.865983 -0.122353 -0.502234 -0.861026 -0.0799741 -0.461244 -0.887274 4.01776e-05 
-0.475979 -0.879365 0.0126947 -0.472865 -0.875352 -0.100783 -0.524665 -0.84778 -0.0774324 
-0.443695 -0.895902 0.0222221 -0.470235 -0.882536 -0.00312855 -0.474199 -0.876753 -0.0802425 
-0.486469 -0.864135 -0.128915 -0.464256 -0.88555 -0.0163187 -0.441793 -0.897115 0.00199132 
-0.486946 -0.873035 -0.0263339 -0.433245 -0.900487 0.0377161 -0.468834 -0.882667 -0.033065 
-0.429801 -0.897389 -0.0998224 -0.531356 -0.846682 -0.0281085 -0.430423 -0.902188 -0.0281514 
-0.491787 -0.870267 -0.0279382 0.430048 0.894661 0.120993 -0.548043 -0.831989 -0.0862802 
-0.431265 -0.886079 -0.169925 -0.452703 -0.881262 -0.135785 -0.41289 -0.883502 -0.221237 
-0.418856 -0.881827 -0.216659 -0.453472 -0.856662 -0.245953 -0.431837 -0.86142 -0.267344 
-0.46259 -0.843511 -0.272947 -0.444816 -0.858069 -0.256626 -0.453549 -0.877687 -0.154786 
-0.494656 -0.811535 -0.311009 -0.514825 -0.809688 -0.28171 -0.436139 -0.862772 -0.25575 
-0.504689 -0.820723 -0.267775 -0.436577 -0.848478 -0.29914 -0.530194 -0.79313 -0.299732 
-0.463782 -0.839661 -0.28262 -0.532919 -0.813536 -0.232716 -0.577068 -0.770007 -0.272181 
-0.485949 -0.811408 -0.324764 -0.499647 -0.819316 -0.281201 -0.502291 -0.818905 -0.277668 
-0.529706 -0.789912 -0.308951 -0.392851 -0.79979 -0.453877 -0.535072 -0.769722 -0.348175 
-0.412709 -0.801482 -0.43278 -0.423866 -0.785664 -0.450633 -0.36007 -0.78857 -0.498504 
-0.411361 -0.787169 -0.459508 -0.424781 -0.774773 -0.468281 -0.272025 -0.811376 -0.517369 
-0.339342 -0.785926 -0.516882 -0.326899 -0.787669 -0.522221 -0.411212 -0.774264 -0.481062 
-0.376799 -0.73838 -0.559301 -0.403223 -0.700869 -0.588383 -0.257445 -0.762901 -0.593046 
-0.374432 -0.773017 -0.512099 -0.43281 -0.697429 -0.571199 -0.457914 -0.671045 -0.583107 
-0.428085 -0.664893 -0.612095 -0.303935 -0.743767 -0.595344 0.383927 0.700177 0.601956 
-0.449267 -0.695754 -0.560434 -0.494015 -0.650956 -0.576372 -0.786151 -0.523244 -0.328911 
-0.379869 -0.72064 -0.57998 -0.720749 -0.413461 -0.556391 -0.145702 0.988204 0.0471528 
0.141789 -0.837259 0.528103 -0.192668 -0.818157 0.541754 -0.437771 -0.899081 0.00298938 
0.196838 0.733945 -0.650062 0.419487 0.895801 -0.146869 0.110109 -0.708676 0.696888 
-0.420299 -0.906995 0.0266134 -0.51791 -0.83862 0.168776 -0.42371 -0.905494 -0.0234791 
-0.519067 -0.84717 0.113459 -0.550974 -0.819598 0.157121 -0.629776 -0.771694 0.0887104 
-0.389023 -0.919038 -0.0634827 -0.450887 -0.890648 0.0587064 -0.53789 -0.795414 0.279268 
-0.62256 -0.781711 -0.0367058 -0.612873 -0.777351 0.141817 -0.417506 -0.908572 0.0136086 
-0.543318 -0.788066 0.289408 -0.590893 -0.799935 -0.104637 -0.597566 -0.797977 0.0784019 
-0.587957 -0.778335 0.220228 -0.516199 -0.839224 0.171002 -0.548998 -0.835597 -0.0194318 
-0.562404 -0.822121 0.0884233 -0.591284 -0.799873 0.102895 -0.561526 -0.826861 0.0314592 
-0.571405 -0.810302 0.130029 -0.594621 -0.803523 0.0278812 -0.542929 -0.839727 -0.00936328 
-0.551298 -0.834301 -0.00334031 -0.572832 -0.819397 0.0212493 -0.541436 -0.84009 0.0331091 
-0.579717 -0.814737 0.0114808 -0.500072 -0.853602 0.145918 -0.503152 -0.823166 0.263127 
-0.554049 -0.829074 0.0752764 -0.576634 -0.816817 0.0174308 -0.522464 -0.845153 0.112909 
-0.504952 -0.834864 0.219146 0.509941 0.8022 -0.310541 -0.546075 -0.837379 -0.0244785 
-0.514677 -0.855562 0.0558659 -0.502097 -0.848777 0.165762 -0.514408 -0.829722 0.216672 
-0.511405 -0.842095 0.171291 -0.565295 -0.803738 0.185598 0.489699 0.869666 -0.0622541 
-0.536187 -0.839195 0.090855 -0.499958 -0.86605 0.000153496 -0.54678 -0.83215 0.0925094 
-0.463508 -0.855998 0.228969 -0.540174 -0.841524 -0.00708431 -0.504063 -0.859456 -0.0851845 
-0.513934 -0.857016 0.0373669 -0.494482 -0.863949 0.0952899 -0.484645 -0.873805 0.0397984 
-0.519381 -0.847555 -0.109058 -0.50611 -0.861523 0.0403829 -0.501541 -0.86506 0.0113329 
-0.477705 -0.878254 0.0216531 -0.448429 -0.889037 0.09233 -0.496876 -0.867229 -0.0320462 
-0.494958 -0.868829 0.012379 -0.47834 -0.875216 0.0720295 -0.487683 -0.87279 -0.0200842 
-0.49631 -0.867315 0.037967 -0.5317 -0.846411 -0.0297451 -0.498466 -0.866585 0.023709 
-0.51087 -0.859656 0.0020033 -0.498917 -0.866281 -0.0252661 -0.538247 -0.840098 -0.0672703 
-0.465237 -0.883133 -0.0602567 -0.50435 -0.863223 0.0218173 0.442282 0.887993 0.125917 
-0.484821 -0.866882 -0.116036 -0.441367 -0.895625 -0.0552415 -0.491665 -0.860028 -0.136442 
-0.458021 -0.868052 -0.191578 -0.448962 -0.872816 -0.191378 -0.44487 -0.891709 -0.0833452 
-0.435477 -0.877954 -0.19889 -0.513488 -0.83378 -0.202832 -0.516135 -0.822967 -0.237342 
-0.47509 -0.869647 -0.134177 -0.429325 -0.872917 -0.231723 -0.408308 -0.880519 -0.240771 
-0.548857 -0.812479 -0.196554 -0.498283 -0.841931 -0.207042 -0.523911 -0.83257 -0.179846 
-0.448543 -0.864691 -0.226096 -0.571447 -0.787597 -0.230518 -0.630698 -0.742774 -0.224736 
-0.562798 -0.807026 -0.178795 -0.561972 -0.789626 -0.246331 -0.548732 -0.780451 -0.299649 
-0.655828 -0.70695 -0.264785 -0.412192 -0.858817 -0.304189 -0.564557 -0.751386 -0.341605 
-0.500983 -0.779838 -0.375325 -0.552365 -0.769441 -0.320708 -0.402959 -0.800267 -0.444068 
-0.337589 -0.855319 -0.393018 -0.437199 -0.806096 -0.398832 -0.436803 -0.800606 -0.410163 
-0.494245 -0.736306 -0.462143 -0.409013 -0.76746 -0.493674 -0.425676 -0.747432 -0.510045 
-0.454721 -0.723802 -0.518979 -0.478952 -0.755229 -0.447474 -0.500571 -0.661288 -0.558683 
-0.43943 -0.681742 -0.584919 -0.438193 -0.684397 -0.582741 -0.436794 -0.680707 -0.588089 
-0.478934 -0.659405 -0.579489 -0.439852 -0.663855 -0.604836 -0.448038 -0.634155 -0.630166 
-0.684343 -0.354866 -0.636981 -0.51013 -0.462715 -0.725026 -0.93963 0.227002 -0.256059 
-0.509902 -0.652492 -0.560584 0.448217 0.418342 0.789995 -0.56971 -0.149468 -0.80814 
-0.266778 -0.330996 -0.905136 -0.351312 -0.159367 0.922596 -0.324802 -0.94552 -0.0222822 
-0.317652 -0.938528 0.13514 -0.522534 -0.83715 -0.161674 -0.578509 -0.799847 0.159913 
0.432592 0.625961 -0.648873 -0.50543 -0.83182 -0.229384 -0.545604 -0.828516 -0.126006 
-0.475003 -0.687255 0.549594 -0.51494 -0.827672 -0.223152 -0.518126 -0.823627 -0.230617 
-0.525098 -0.794917 0.30394 -0.519457 -0.739078 0.428868 -0.517771 -0.603161 0.60672 
-0.54407 -0.833372 -0.097358 -0.529748 -0.839008 0.124229 -0.552923 -0.757929 0.346151 
-0.63804 -0.691384 0.338959 -0.547497 -0.760071 0.350056 -0.507797 -0.861265 0.0191202 
-0.568578 -0.78695 0.239643 -0.632144 -0.749691 0.195851 -0.635776 -0.635277 0.43842 
-0.547437 -0.633998 0.546223 -0.565403 -0.807111 0.169975 -0.609329 -0.770843 0.185795 
-0.663007 -0.728003 0.174451 -0.615451 -0.682985 0.393386 -0.634406 -0.6712 0.383431 
-0.610865 -0.75499 0.238399 -0.616163 -0.785204 -0.0616285 -0.630328 -0.748397 0.206368 
-0.634706 -0.716918 0.288404 -0.645821 -0.639928 0.416422 -0.558411 -0.824915 -0.087702 
-0.58577 -0.79746 0.144677 -0.630282 -0.748803 0.205035 -0.632297 -0.727811 0.265502 
-0.537985 -0.753935 0.377034 -0.53146 -0.660779 0.53002 -0.628427 -0.768308 0.121581 
-0.63078 -0.771327 0.0846855 -0.519581 -0.803944 0.289326 -0.537484 -0.705855 0.461388 
-0.538441 -0.736849 0.408822 -0.627375 -0.778707 0.0039826 -0.54691 -0.737821 0.395613 