# vtk DataFile Version 4.0
vtk output
ASCII
DATASET UNSTRUCTURED_GRID
POINTS 32491 double
-106.419 -110.56 35.5807 -107.176 -108.562 37.7218 -92.8782 -96.5682 1.87615 
-79.306 -81.5765 -31.8164 -105.425 -108.595 35.9654 -78.3739 -81.6098 -31.4557 
-114.602 -117.623 61.6225 -113.752 -116.624 59.5175 -142.329 -143.642 133.65 
-133.101 -136.646 110.447 -134.739 -136.646 114.681 -135.558 -136.646 116.798 
-132.251 -135.646 108.342 -133.07 -135.646 110.459 -130.581 -134.647 104.12 
-131.4 -134.647 106.237 -130.55 -133.648 104.132 -131.369 -133.648 106.249 
-131.338 -132.648 106.261 -125.418 -126.651 91.5137 -118.452 -120.721 79.6048 
-80.9417 -80.8101 -8.10928 -80.0915 -79.8107 -10.2143 -75.9647 -78.8112 -20.7875 
-75.9337 -77.8118 -20.7755 -75.9026 -76.8123 -20.7635 -75.8716 -75.8129 -20.7515 
-83.4415 -85.8406 0.659496 -82.5913 -84.8412 -1.44554 -85.0487 -84.8412 4.90561 
-82.5602 -83.8418 -1.43352 -84.1985 -83.8418 2.80058 -79.2526 -82.8423 -9.8897 
-80.0717 -82.8423 -7.77265 -80.8909 -82.8423 -5.6556 -82.5292 -82.8423 -1.4215 
-79.2215 -81.8429 -9.87768 -80.0407 -81.8429 -7.76063 -81.679 -81.8429 -3.52654 
-77.5522 -80.8434 -14.0998 -79.1905 -80.8434 -9.86567 -80.8288 -80.8434 -5.63157 
-76.702 -79.844 -16.2048 -77.5211 -79.844 -14.0877 -79.1594 -79.844 -9.85365 
-79.9786 -79.844 -7.7366 -75.8518 -78.8445 -18.3098 -76.6709 -78.8445 -16.1928 
-77.4901 -78.8445 -14.0757 -79.1284 -78.8445 -9.84163 -75.8207 -77.8451 -18.2978 
-76.6399 -77.8451 -16.1808 -77.459 -77.8451 -14.0637 -74.1514 -76.8456 -22.5199 
-75.7897 -76.8456 -18.2858 -76.6088 -76.8456 -16.1687 -75.7586 -75.8462 -18.2738 
-101.94 -104.863 49.484 -86.6983 -88.8723 11.5693 -84.2098 -87.8728 5.23022 
-86.6672 -87.8728 11.5814 -84.9979 -86.8734 7.35928 -86.6362 -86.8734 11.5934 
-83.3285 -85.8739 3.1372 -84.1477 -85.8739 5.25425 -84.9668 -85.8739 7.3713 
-85.786 -85.8739 9.48835 -81.6592 -84.8745 -1.08488 -84.1166 -84.8745 5.26627 
-84.9358 -84.8745 7.38332 -80.809 -83.8751 -3.18991 -81.6281 -83.8751 -1.07286 
-79.1396 -82.8756 -7.41199 -79.9588 -82.8756 -5.29494 -80.7779 -82.8756 -3.17789 
-81.5971 -82.8756 -1.06085 -82.4162 -82.8756 1.0562 -83.2354 -82.8756 3.17325 
-78.2894 -81.8762 -9.51702 -79.1086 -81.8762 -7.39997 -79.9277 -81.8762 -5.28293 
-80.7469 -81.8762 -3.16588 -81.566 -81.8762 -1.04883 -77.4392 -80.8767 -11.6221 
-78.2584 -80.8767 -9.50501 -79.0775 -80.8767 -7.38796 -79.8967 -80.8767 -5.27091 
-80.7158 -80.8767 -3.15386 -76.589 -79.8773 -13.7271 -77.4082 -79.8773 -11.61 
-78.2273 -79.8773 -9.49299 -79.0465 -79.8773 -7.37594 -79.8656 -79.8773 -5.25889 
-75.7388 -78.8778 -15.8321 -76.558 -78.8778 -13.7151 -77.3771 -78.8778 -11.598 
-78.1963 -78.8778 -9.48097 -79.0154 -78.8778 -7.36393 -74.8886 -77.8784 -17.9372 
-75.7078 -77.8784 -15.8201 -76.5269 -77.8784 -13.7031 -77.3461 -77.8784 -11.586 
-78.1652 -77.8784 -9.46896 -74.0384 -76.8789 -20.0422 -74.8576 -76.8789 -17.9251 
-75.6767 -76.8789 -15.8081 -76.4959 -76.8789 -13.691 -77.315 -76.8789 -11.574 
-74.0073 -75.8795 -20.0302 -74.8265 -75.8795 -17.9131 -75.6456 -75.8795 -15.7961 
-76.4648 -75.8795 -13.679 -71.5188 -74.88 -26.3693 -73.9763 -74.88 -20.0182 
-74.7954 -74.88 -17.9011 -73.9452 -73.8806 -20.0061 -73.095 -72.8812 -22.1112 
-70.6065 -71.8817 -28.4503 -70.5755 -70.8823 -28.4383 -71.3946 -70.8823 -26.3212 
-70.5444 -69.8828 -28.4263 -129.697 -131.882 121.5 -116.218 -119.888 87.7713 
-116.187 -118.889 87.7833 -101.858 -105.896 51.9497 -101.008 -104.897 49.8446 
-100.158 -103.897 47.7396 -100.977 -103.897 49.8566 -100.946 -102.898 49.8687 
-100.095 -101.898 47.7636 -99.2452 -100.899 45.6586 -99.2142 -99.8995 45.6706 
-85.7662 -88.9056 11.93 -84.0968 -87.9061 7.70793 -84.916 -87.9061 9.82498 
-85.7351 -87.9061 11.942 -86.5543 -87.9061 14.0591 -83.2466 -86.9067 5.60289 
-84.0658 -86.9067 7.71994 -84.8849 -86.9067 9.83699 -85.7041 -86.9067 11.954 
-86.5232 -86.9067 14.0711 -82.3964 -85.9072 3.49786 -83.2156 -85.9072 5.61491 
-84.0347 -85.9072 7.73196 -84.8539 -85.9072 9.84901 -85.673 -85.9072 11.9661 
-81.5462 -84.9078 1.39283 -82.3654 -84.9078 3.50988 -83.1845 -84.9078 5.62693 
-84.0037 -84.9078 7.74398 -84.8228 -84.9078 9.86102 -80.696 -83.9084 -0.712203 
-81.5152 -83.9084 1.40485 -82.3343 -83.9084 3.52189 -83.1535 -83.9084 5.63894 
-83.9726 -83.9084 7.75599 -79.8458 -82.9089 -2.81723 -80.665 -82.9089 -0.700187 
-81.4841 -82.9089 1.41686 -82.3033 -82.9089 3.53391 -83.1224 -82.9089 5.65096 
-78.9956 -81.9095 -4.92227 -79.8148 -81.9095 -2.80522 -80.6339 -81.9095 -0.68817 
-81.4531 -81.9095 1.42888 -82.2722 -81.9095 3.54593 -77.3263 -80.91 -9.14435 
-78.1454 -80.91 -7.0273 -78.9646 -80.91 -4.91025 -79.7837 -80.91 -2.7932 
-80.6029 -80.91 -0.676154 -76.4761 -79.9106 -11.2494 -77.2952 -79.9106 -9.13233 
-78.1144 -79.9106 -7.01528 -78.9335 -79.9106 -4.89824 -79.7527 -79.9106 -2.78119 
-75.6259 -78.9111 -13.3544 -76.445 -78.9111 -11.2374 -77.2642 -78.9111 -9.12032 
-78.0833 -78.9111 -7.00327 -78.9025 -78.9111 -4.88622 -74.7757 -77.9117 -15.4594 
-75.5948 -77.9117 -13.3424 -76.414 -77.9117 -11.2253 -77.2331 -77.9117 -9.1083 
-78.0523 -77.9117 -6.99125 -73.9254 -76.9122 -17.5645 -74.7446 -76.9122 -15.4474 
-75.5637 -76.9122 -13.3304 -76.3829 -76.9122 -11.2133 -77.202 -76.9122 -9.09628 
-73.0752 -75.9128 -19.6695 -73.8944 -75.9128 -17.5525 -74.7135 -75.9128 -15.4354 
-75.5327 -75.9128 -13.3184 -76.3518 -75.9128 -11.2013 -72.225 -74.9133 -21.7745 
-73.0442 -74.9133 -19.6575 -73.8633 -74.9133 -17.5404 -74.6825 -74.9133 -15.4234 
-75.5016 -74.9133 -13.3063 -72.194 -73.9139 -21.7625 -73.0131 -73.9139 -19.6455 
-73.8323 -73.9139 -17.5284 -69.7055 -72.9145 -28.1017 -70.5246 -72.9145 -25.9846 
-72.1629 -72.9145 -21.7505 -72.9821 -72.9145 -19.6335 -69.6744 -71.915 -28.0896 
-70.4936 -71.915 -25.9726 -71.3127 -71.915 -23.8555 -72.1319 -71.915 -21.7385 
-69.6434 -70.9156 -28.0776 -70.4625 -70.9156 -25.9606 -71.2817 -70.9156 -23.8435 
-69.6123 -69.9161 -28.0656 -70.4315 -69.9161 -25.9486 -69.5813 -68.9167 -28.0536 
-144.764 -145.907 161.916 -124.514 -126.918 111.335 -124.483 -125.918 111.347 
-123.633 -124.919 109.242 -124.452 -124.919 111.359 -115.224 -117.923 88.1559 
-111.885 -115.924 79.7118 -113.524 -115.924 83.9459 -100.895 -104.93 52.3223 
-100.045 -103.931 50.2173 -99.1944 -102.931 48.1123 -100.014 -102.931 50.2293 
-100.833 -102.931 52.3464 -99.1634 -101.932 48.1243 -98.3131 -100.932 46.0192 
-98.2821 -99.9328 46.0313 -94.9744 -98.9333 37.5751 -96.5506 -96.9344 41.8332 
-85.6532 -88.9389 14.4077 -86.4724 -88.9389 16.5248 -87.2915 -88.9389 18.6418 
-88.1107 -88.9389 20.7589 -88.9298 -88.9389 22.8759 -84.803 -87.9394 12.3027 
-85.6222 -87.9394 14.4197 -86.4413 -87.9394 16.5368 -87.2605 -87.9394 18.6538 
-88.0796 -87.9394 20.7709 -83.1337 -86.94 8.0806 -83.9528 -86.94 10.1977 
-84.772 -86.94 12.3147 -85.5911 -86.94 14.4317 -86.4103 -86.94 16.5488 
-87.2294 -86.94 18.6658 -82.2835 -85.9405 5.97557 -83.1026 -85.9405 8.09262 
-83.9218 -85.9405 10.2097 -84.7409 -85.9405 12.3267 -85.5601 -85.9405 14.4438 
-81.4333 -84.9411 3.87054 -82.2524 -84.9411 5.98759 -83.0716 -84.9411 8.10463 
-83.8907 -84.9411 10.2217 -84.7099 -84.9411 12.3387 -80.5831 -83.9416 1.7655 
-81.4022 -83.9416 3.88255 -82.2214 -83.9416 5.9996 -83.0405 -83.9416 8.11665 
-83.8597 -83.9416 10.2337 -79.7329 -82.9422 -0.339528 -80.552 -82.9422 1.77752 
-81.3712 -82.9422 3.89457 -82.1903 -82.9422 6.01162 -83.0095 -82.9422 8.12867 
-78.8827 -81.9428 -2.44456 -79.7018 -81.9428 -0.327512 -80.521 -81.9428 1.78954 
-81.3401 -81.9428 3.90659 -82.1593 -81.9428 6.02363 -78.0325 -80.9433 -4.54959 
-78.8516 -80.9433 -2.43254 -79.6708 -80.9433 -0.315496 -80.4899 -80.9433 1.80155 
-81.3091 -80.9433 3.9186 -76.3631 -79.9439 -8.77167 -77.1823 -79.9439 -6.65462 
-78.0014 -79.9439 -4.53758 -78.8206 -79.9439 -2.42053 -79.6397 -79.9439 -0.30348 
-80.4589 -79.9439 1.81357 -75.5129 -78.9444 -10.8767 -76.3321 -78.9444 -8.75966 
-77.1512 -78.9444 -6.64261 -77.9704 -78.9444 -4.52556 -78.7895 -78.9444 -2.40851 
-74.6627 -77.945 -12.9817 -75.4818 -77.945 -10.8647 -76.301 -77.945 -8.74764 
-77.1201 -77.945 -6.63059 -77.9393 -77.945 -4.51354 -73.8125 -76.9455 -15.0868 
-74.6316 -76.9455 -12.9697 -75.4508 -76.9455 -10.8527 -76.2699 -76.9455 -8.73563 
-77.0891 -76.9455 -6.61858 -72.9623 -75.9461 -17.1918 -73.7814 -75.9461 -15.0748 
-74.6006 -75.9461 -12.9577 -75.4197 -75.9461 -10.8407 -76.2389 -75.9461 -8.72361 
-72.1121 -74.9466 -19.2968 -72.9312 -74.9466 -17.1798 -73.7504 -74.9466 -15.0627 
-74.5695 -74.9466 -12.9457 -75.3887 -74.9466 -10.8286 -70.4427 -73.9472 -23.5189 
-71.2619 -73.9472 -21.4019 -72.081 -73.9472 -19.2848 -72.9002 -73.9472 -17.1678 
-73.7193 -73.9472 -15.0507 -74.5385 -73.9472 -12.9337 -69.5925 -72.9477 -25.6239 
-70.4117 -72.9477 -23.5069 -71.2308 -72.9477 -21.3899 -72.05 -72.9477 -19.2728 
-72.8691 -72.9477 -17.1558 -68.7423 -71.9483 -27.729 -69.5615 -71.9483 -25.6119 
-70.3806 -71.9483 -23.4949 -71.1998 -71.9483 -21.3778 -72.0189 -71.9483 -19.2608 
-68.7113 -70.9489 -27.717 -69.5304 -70.9489 -25.5999 -70.3496 -70.9489 -23.4829 
-71.1687 -70.9489 -21.3658 -68.6802 -69.9494 -27.7049 -69.4994 -69.9494 -25.5879 
-70.3185 -69.9494 -23.4709 -68.6492 -68.95 -27.6929 -69.4683 -68.95 -25.5759 
-68.6181 -67.9505 -27.6809 -123.582 -126.951 111.696 -122.732 -125.952 109.591 
-123.551 -125.952 111.708 -121.882 -124.952 107.486 -123.52 -124.952 111.72 
-121.851 -123.953 107.498 -112.592 -115.957 84.3065 -99.8695 -101.965 52.719 
-99.0193 -100.966 50.614 -94.7994 -96.9677 40.0768 -95.6185 -96.9677 42.1939 
-94.7373 -94.9688 40.1009 -93.8871 -93.9694 37.9958 -88.879 -90.9711 25.3296 
-85.5403 -88.9722 16.8854 -86.3594 -88.9722 19.0025 -87.9977 -88.9722 23.2366 
-88.8169 -88.9722 25.3536 -84.6901 -87.9727 14.7804 -85.5092 -87.9727 16.8974 
-86.3284 -87.9727 19.0145 -87.1475 -87.9727 21.1315 -87.9667 -87.9727 23.2486 
-83.8399 -86.9733 12.6754 -84.659 -86.9733 14.7924 -85.4782 -86.9733 16.9095 
-86.2973 -86.9733 19.0265 -87.1165 -86.9733 21.1436 -82.9897 -85.9738 10.5703 
-83.8088 -85.9738 12.6874 -84.628 -85.9738 14.8044 -85.4471 -85.9738 16.9215 
[...]
POINT_DATA 32491
VECTORS DTMRIFiberOrientation float
-0.434511 -0.279965 -0.856049 0.102452 0.588925 -0.801668 -0.144912 -0.835678 -0.529757 
-0.840663 -0.00840378 -0.541493 0.304978 -0.60614 -0.734563 -0.723581 -0.187886 -0.664176 
-0.457705 0.790687 -0.406596 -0.913777 -0.0271644 0.405307 -0.900532 0.258094 -0.3499 
-0.653197 0.291355 -0.698889 -0.906314 -0.101891 0.410137 -0.958777 -0.189296 0.211929 
-0.72324 -0.67668 -0.13794 -0.891004 0.0839742 -0.446162 -0.773705 0.0279065 -0.632931 
-0.960354 0.108429 -0.256834 0.550041 -0.270684 -0.790054 -0.295257 0.954248 -0.0472693 
-0.854587 0.352204 -0.38162 -0.00776122 0.251982 -0.967701 -0.130893 0.250559 -0.959212 
-0.409165 0.472883 0.780362 -0.00790155 -0.347561 0.937624 -0.814226 0.240025 -0.528606 
-0.530118 0.646191 -0.54901 0.13423 0.887943 0.439931 -0.0262486 -0.844155 0.535457 
-0.0881532 0.291392 -0.952533 -0.917071 0.300636 0.261915 -0.533089 0.615306 0.580703 
-0.971801 0.199242 0.126114 -0.943176 0.213234 -0.254853 -0.927792 -0.0765123 0.365169 
-0.936824 -0.163436 0.309271 -0.718204 0.653342 0.239431 -0.975236 0.0418576 -0.21717 
-0.732336 -0.574461 0.36562 -0.83498 0.0341903 0.549216 -0.11314 0.992153 -0.0532174 
-0.849654 0.482468 0.212867 -0.362474 0.207523 -0.908596 -0.799572 -0.0226218 -0.600144 
0.252712 -0.934125 0.252083 -0.452879 0.667177 0.591419 0.0235815 0.993799 0.10866 
-0.162109 -0.848823 -0.503209 0.152538 0.962834 -0.222896 -0.536656 -0.32189 0.779992 
-0.116806 0.947028 0.299157 -0.395865 -0.90866 0.132774 -0.266088 -0.963947 -0.00200608 
-0.36066 -0.128481 0.923806 -0.0564785 0.962711 0.264571 -0.556515 0.823438 0.11064 
0.230362 0.959676 0.161108 0.18834 0.978227 -0.0871786 0.397111 0.914456 0.0779284 
-0.748845 -0.340377 -0.56866 -0.457784 -0.437776 0.773813 -0.315875 -0.166637 -0.934053 
-0.24056 -0.492374 0.83648 -0.281685 0.614488 0.736925 -0.312241 0.269312 -0.911031 
-0.487755 -0.350961 0.799325 -0.000456061 -0.555221 0.831703 -0.155982 0.321799 0.933871 
0.531916 0.603645 -0.593867 -0.980865 -0.114829 0.157221 -0.502928 -0.28159 0.817172 
-0.566481 0.410996 -0.714269 -0.681601 -0.501039 0.533273 -0.800773 -0.489501 -0.345182 
-0.0150594 -0.951175 -0.308285 -0.0678514 -0.932474 0.354806 -0.166304 0.555845 -0.814481 
-0.682652 -0.707835 -0.181537 -0.182675 -0.980056 -0.0782283 0.256748 0.965429 -0.0450207 
0.124763 -0.963664 0.236189 0.0965431 0.886999 0.451566 -0.129302 -0.87694 0.46288 
-0.363066 0.868321 -0.337937 0.170395 0.884536 -0.434236 -0.0406105 -0.929364 -0.366924 
0.424188 -0.830197 -0.361714 -0.431868 -0.886679 -0.165197 -0.216006 -0.975666 0.0376611 
-0.612214 0.775867 -0.152399 0.240047 -0.824754 -0.512014 -0.00141424 0.960237 0.279183 
0.0153891 -0.999469 -0.028734 -0.218795 -0.949084 -0.226645 0.0329774 -0.99923 0.0212774 
-0.412853 -0.903773 -0.112901 0.0489462 -0.997501 -0.0509459 0.115466 0.634687 0.764094 
-0.171457 0.971142 -0.165787 -0.205345 -0.877707 -0.432971 -0.306646 -0.935705 -0.174424 
-0.305867 -0.774701 -0.55343 -0.138094 -0.987102 -0.0809867 0.209468 -0.974017 -0.0861061 
-0.255706 0.964076 0.0719133 -0.177843 -0.971784 0.154948 -0.207967 -0.964801 -0.160961 
-0.302351 -0.946457 0.113149 -0.0806589 -0.966187 -0.2449 0.422494 -0.902373 -0.0849778 
-0.102992 -0.961427 0.255051 0.0860745 0.964297 0.250446 0.274214 0.960838 -0.0399621 
-0.836233 -0.349913 -0.422228 -0.107764 0.126873 0.986048 0.323794 0.839603 -0.436147 
-0.141058 -0.985849 0.0905808 -0.263188 -0.862823 0.431587 -0.160138 -0.974266 0.158625 
-0.0134645 0.783126 0.621717 -0.444027 0.177765 0.878202 -0.675263 0.72508 0.135202 
-0.289374 -0.320072 -0.902118 -0.732913 0.45171 0.508721 -0.736889 0.64901 0.189157 
-0.417717 0.709808 0.567173 -0.2146 -0.975911 0.0393045 -0.899697 -0.386455 -0.202973 
-0.940303 -0.158376 -0.301243 -0.78752 0.606524 -0.109273 -0.961876 0.0710556 -0.264096 
0.449857 0.741512 0.497783 0.622114 0.635919 -0.456708 -0.605689 0.203384 -0.76927 
-0.364018 0.382142 0.849387 0.111171 0.990299 -0.0833656 -0.469902 -0.322707 0.821616 
-0.345781 0.178882 0.921107 -0.746636 0.665233 -8.5634e-05 0.185917 -0.962671 0.196723 
0.0280058 0.996763 0.0753613 -0.674276 0.384255 0.630634 -0.174875 -0.919787 0.3513 
-0.416032 0.901403 -0.119957 0.187576 0.96283 0.194352 -0.189331 0.976493 -0.103032 
-0.112999 -0.979811 -0.16493 0.579612 -0.697128 -0.421974 -0.470558 -0.814507 -0.339344 
-0.213184 -0.923716 -0.318279 -0.0728696 -0.984546 -0.159246 0.154676 -0.964693 0.213174 
-0.186763 0.963355 0.192527 -0.11592 0.987269 0.108915 -0.407418 -0.865755 -0.290652 
-0.109006 -0.991828 -0.0662937 -0.00849732 -0.999745 0.02091 0.243581 -0.917664 0.313943 
-0.249418 0.968368 -0.00740124 -0.00901558 0.984727 -0.173871 -0.404755 -0.914404 -0.00629313 
-0.0207917 0.999783 0.000876111 -0.186669 0.98224 -0.0189593 0.0670277 -0.972828 0.221615 
-0.224177 -0.973259 -0.050125 -0.335896 0.932322 -0.133975 -0.282305 -0.945336 0.163231 
-0.202627 -0.97431 -0.0982971 0.0598281 -0.998025 0.0191245 -0.178885 -0.969736 -0.166172 
-0.269988 -0.953696 -0.132554 -0.185017 -0.98254 -0.0195803 -0.174934 0.984484 -0.0137202 
-0.225971 -0.970144 0.0880783 0.314649 0.948771 -0.0288153 -0.163754 -0.961844 -0.219184 
-0.26934 -0.954474 -0.128202 0.0636543 0.993693 -0.0923129 -0.152005 0.986914 0.0537982 
-0.215978 -0.966419 0.139239 -0.473638 -0.797491 -0.373731 0.224224 0.961547 0.158591 
-0.237244 -0.938797 -0.249751 0.164945 0.986185 0.0152142 -0.412834 -0.884211 -0.218494 
0.360464 0.930725 0.0617738 -0.42043 -0.843436 -0.334447 -0.0556988 -0.982923 -0.175385 
-0.178564 -0.941151 -0.286967 -0.416941 -0.907109 -0.0575701 -0.444859 -0.889692 -0.102708 
-0.128248 -0.967237 -0.219103 -0.228559 -0.948453 -0.219539 -0.214192 0.950279 0.226035 
-0.443325 -0.874607 0.196278 -0.254793 -0.920345 -0.296725 0.419401 0.905606 0.0630995 
0.365145 0.909428 -0.199024 0.162018 0.931653 0.325227 -0.235241 -0.946574 0.220587 
-0.55813 -0.775945 0.293939 -0.556544 -0.830773 0.00861682 0.460655 0.886718 -0.0390954 
-0.399792 -0.888123 0.226725 0.250491 0.967445 -0.0361252 -0.755786 -0.625574 0.193508 
-0.56825 -0.807046 0.160525 -0.644344 -0.761403 0.0713154 -0.373317 -0.315439 0.872429 
-0.424696 -0.903338 0.0601127 -0.602631 -0.795559 0.0626214 0.432651 0.660637 -0.613492 
-0.535308 -0.664339 -0.521632 -0.511156 -0.364755 -0.77825 0.0102848 -0.985868 0.167206 
-0.00212081 -0.712011 0.702165 -0.68174 -0.669082 -0.295906 -0.720845 0.150465 0.676567 
-0.107712 0.238217 -0.965221 -0.758955 -0.292399 0.5818 -0.0314898 0.0674461 -0.997226 
-0.202803 -0.389193 -0.898554 -0.785544 -0.0715087 -0.614659 -0.00788853 0.0112586 0.999906 
0.0291173 -0.913152 0.406578 -0.276199 0.361361 -0.89058 -0.952182 0.109489 0.28524 
-0.142346 -0.986285 -0.0835464 -0.533243 -0.540171 0.65105 -0.18673 0.982282 0.0159573 
-0.469376 -0.863524 -0.184423 -0.350778 0.936119 0.0252004 -0.833034 -0.552749 -0.0228535 
-0.142063 -0.838051 0.526771 -0.691448 0.434421 0.577215 -0.825182 -0.483752 0.291649 
-0.949765 -0.287587 -0.12345 -0.883082 -0.237443 -0.404706 -0.34698 -0.862215 0.369039 
-0.738296 0.00722192 0.674438 -0.0448203 -0.777667 0.627076 -0.452571 0.710418 0.538967 
-0.809016 0.312104 0.49808 -0.512555 0.837212 0.190693 0.127761 -0.957411 -0.258922 
0.711591 -0.146259 -0.687202 -0.675531 -0.198542 0.710098 -0.540661 0.555684 0.631586 
-0.640179 -0.413368 0.647532 0.0951242 0.992978 0.0703307 0.0815385 -0.984433 -0.155704 
0.250387 0.968146 -0.00050341 0.115296 0.993072 -0.022709 -0.421259 -0.601266 0.678985 
0.698591 -0.360832 -0.617877 0.0372315 0.992266 0.118417 -0.0402975 -0.997257 -0.0620918 
-0.165805 0.953713 0.250877 0.238538 0.968579 0.0703874 -0.190176 -0.959917 -0.205893 
-0.0525749 -0.991639 0.117846 0.235242 0.958229 -0.162661 -0.072547 0.997346 0.00618625 
-0.0871104 -0.995871 0.0255343 0.096082 0.972404 0.212602 -0.00699499 0.992601 -0.121223 
0.0208203 -0.996787 0.0773403 -0.257307 -0.947553 0.189568 -0.172611 -0.981507 0.082764 
-0.152988 -0.964042 0.217296 -0.322628 -0.946522 -0.00283435 -0.17545 -0.980625 0.0871263 
-0.0409999 -0.995436 0.0861733 -0.263973 -0.962533 -0.0620287 0.21342 0.952879 -0.215579 
-0.179387 -0.979762 -0.088812 -0.17591 -0.978038 0.111793 -0.20931 -0.976524 0.0508944 
-0.0685846 -0.990839 0.116336 -0.133965 -0.987409 -0.084125 -0.219773 -0.96451 -0.146359 
0.0512962 0.99862 0.0112923 -0.0203974 -0.990825 0.133601 -0.132904 -0.989805 0.0512132 
-0.0625446 -0.996521 0.0550805 -0.197604 -0.980237 0.00939286 -0.245797 -0.960049 -0.133752 
0.151721 0.982209 -0.110658 -0.10942 0.99396 -0.00845001 -0.105944 -0.977854 0.18049 
0.103819 0.994526 -0.011812 0.164197 0.942395 -0.291428 -0.203465 -0.97895 -0.0161038 
0.061986 0.996384 0.0581128 -0.147141 -0.966214 0.211614 0.0307757 -0.999316 0.0205017 
0.281806 0.958517 -0.0427782 -0.15679 -0.987183 0.0297649 -0.0498475 0.99802 0.0383505 
0.00383599 0.994896 0.100831 0.0904842 0.990286 -0.105577 -0.517658 -0.855588 0.00027277 
0.30888 0.943359 -0.121112 -0.176352 -0.971771 -0.156722 0.232837 -0.96548 -0.116772 
0.0910693 0.980539 0.173925 0.585612 0.771014 -0.250191 0.526259 0.849788 -0.0302034 
0.300818 0.945073 -0.127854 0.177596 0.940244 0.290518 0.202283 -0.949801 -0.238662 
0.541006 0.84094 0.0115197 -0.677664 -0.672788 0.296864 0.389194 0.916915 0.0882904 
-0.463673 -0.878103 -0.118075 0.267133 0.83852 0.474894 -0.739287 -0.475688 -0.476628 
0.457619 0.859684 -0.226996 0.656298 0.754142 -0.0232782 -0.638383 -0.733715 0.232658 
0.399376 0.91678 -0.00358401 -0.459377 -0.835229 -0.302268 0.0406007 -0.182343 0.982396 
-0.613695 -0.645778 -0.454257 -0.610057 -0.788094 0.0820884 0.59488 0.802689 0.042519 
-0.526955 -0.84982 0.0111338 -0.272717 -0.274337 0.922152 -0.811657 -0.5223 -0.261563 
-0.342246 -0.782735 -0.519802 -0.551983 -0.830606 -0.0735459 -0.563752 -0.820101 -0.0980706 
0.557203 -0.809378 0.185558 -0.874346 -0.461569 -0.149911 0.654139 0.747801 0.113554 
-0.584189 -0.78873 -0.191382 -0.861995 0.391795 -0.321655 0.143516 0.489616 -0.860046 
0.857293 0.449074 -0.251757 -0.944916 0.226537 -0.23625 -0.0366281 0.341897 -0.939023 
-0.603068 0.23224 -0.763134 -0.572707 0.0344061 -0.819038 -0.747788 0.621941 -0.232384 
-0.448079 -0.20358 -0.870506 -0.521409 0.663076 -0.537088 -0.158859 -0.793614 -0.587317 
-0.747598 0.191107 -0.636062 -0.915665 -0.208491 0.343642 -0.870285 0.431824 -0.236922 
-0.390397 -0.721162 -0.572289 -0.898628 0.438197 -0.0212287 -0.416214 -0.0759275 -0.906091 
-0.902118 0.245049 -0.355154 -0.902904 0.281984 0.324422 -0.207388 -0.507931 -0.83606 
0.459644 -0.881276 0.109909 -0.0576419 -0.401415 0.914081 -0.16918 -0.771796 0.61295 
-0.0556734 -0.908149 0.414928 -0.173692 -0.892405 0.416467 0.147547 0.977706 -0.149403 
0.757814 -0.507299 -0.410323 -0.660205 -0.48452 0.573907 -0.122045 -0.76171 0.63632 
-0.354478 -0.928801 0.108046 -0.0689786 -0.985967 0.152024 0.228891 0.973165 -0.0236201 
0.388984 -0.902579 0.184505 -0.161258 -0.915258 0.369186 0.424033 0.889003 -0.172831 
-0.401125 -0.913204 0.0718163 -0.238934 -0.960082 0.145438 -0.174478 -0.984636 0.00700339 
-0.0998946 0.933514 -0.344345 0.276534 0.951179 -0.13707 0.470272 0.84628 -0.25031 
-0.223214 -0.974439 -0.0253946 -0.208907 -0.97056 0.119877 -0.168829 -0.983429 0.0660654 
-0.302326 -0.920931 0.245937 0.264472 0.964359 -0.00815799 -0.417475 -0.908357 0.0245311 
-0.245941 -0.957699 0.149418 -0.117715 -0.970331 0.211189 0.17236 0.984607 -0.0290132 
-0.257503 -0.920108 0.295115 0.279872 0.956263 0.0850482 -0.204686 -0.936883 0.283468 
0.291093 0.94526 -0.147471 0.298031 0.927971 -0.223715 -0.213047 -0.963068 0.164652 
-0.122288 -0.949879 0.287708 -0.219143 -0.975266 -0.0288549 -0.0964594 -0.980931 0.168728 
-0.0187566 -0.984777 0.172806 -0.0378411 0.98509 -0.167827 0.11253 0.988841 -0.0976256 
0.125652 0.981806 -0.14237 -0.0255722 0.981205 -0.191265 0.00450131 0.986829 -0.161706 
-0.0368467 0.971546 -0.233966 -0.0216511 -0.987797 0.154233 0.0532421 -0.998229 -0.0265253 
-0.0334573 -0.97223 0.231622 -0.00935577 -0.954794 0.297121 -0.0689024 -0.976882 0.202369 
0.0587851 0.948183 -0.31224 0.0387646 0.984438 -0.171403 0.217832 0.975388 -0.0341688 
0.195886 0.969126 -0.149747 -0.112508 -0.992532 0.0471385 0.0622735 -0.990727 0.120753 
0.113329 0.993397 0.017833 -0.0972352 -0.978646 0.181101 -0.0244259 -0.997634 0.0642646 
0.487507 0.741923 -0.460312 0.143973 0.989577 0.00315807 0.0181747 0.993827 -0.109444 
0.191458 0.978815 0.0725634 -0.173173 -0.981071 0.086663 0.516011 0.855615 -0.0406762 
-0.324261 -0.848302 0.418614 0.116929 0.947111 0.298845 0.0767637 -0.989592 -0.121719 
0.0134512 0.91768 0.397093 -0.636128 -0.694139 0.336914 0.344766 0.938043 -0.0348046 
0.299583 0.951044 -0.0759237 -0.475873 -0.858706 -0.19018 0.236931 0.938832 0.249915 
0.545317 0.723808 -0.422766 -0.630109 -0.633055 0.449671 0.183667 0.982929 -0.0107972 
-0.433291 -0.829994 -0.351239 0.445353 0.804408 0.393176 -0.486418 -0.829628 -0.274071 
-0.595086 -0.684281 0.421464 -0.3168 -0.870557 0.376521 0.352219 0.803839 -0.479359 
0.318407 0.94782 0.0159548 -0.573846 -0.769447 -0.280449 -0.792604 -0.60013 0.107812 
-0.418613 -0.900165 -0.120273 -0.767155 -0.634325 -0.0954178 -0.461219 -0.826035 0.323948 
0.53268 0.824865 -0.189341 -0.590718 -0.257688 0.764624 -0.731055 -0.477289 -0.4876 
-0.655445 -0.710825 0.255187 -0.15791 -0.873625 0.460264 -0.617429 -0.098438 0.780443 
-0.646573 -0.73898 -0.189347 -0.899875 0.435981 0.0120836 -0.158892 0.470332 0.868068 
-0.196888 0.158507 -0.967528 -0.816605 0.533383 0.220586 -0.257814 0.242327 -0.935313 
0.294943 -0.815785 -0.497496 -0.932103 0.0332984 -0.360659 -0.973146 0.229697 -0.015031 
-0.813452 0.101625 0.572685 -0.2367 -0.187296 -0.953359 -0.948344 0.31468 0.0402584 
-0.621258 0.678835 -0.391435 0.694156 -0.66052 -0.286113 -0.199736 -0.861675 0.4665 
-0.979173 0.198471 0.0427809 -0.910305 -0.376713 0.171556 -0.356769 -0.831692 0.425447 
0.395059 -0.917833 0.0388555 0.194591 -0.980884 -0.00125871 -0.537291 -0.762032 0.361422 
-0.550858 0.81082 -0.197805 -0.76495 0.643814 0.0188175 -0.0644544 0.915383 -0.39739 
-0.200261 -0.978732 -0.0444882 -0.341748 -0.904182 0.256249 0.140817 0.974643 0.173899 
-0.0892531 -0.91075 0.403198 -0.61137 0.790071 0.0448836 0.399534 0.915634 -0.0445728 
-0.228648 -0.944867 0.234407 -0.236097 -0.954551 0.181907 -0.207764 -0.927852 0.309716 
-0.148735 0.941368 -0.302826 -0.0141746 -0.998248 0.0574467 -0.429262 -0.825575 -0.366277 
-0.41759 -0.905931 0.0700508 -0.228592 -0.929957 0.287969 -0.818577 0.498714 0.284984 
-0.299543 -0.892846 0.336302 0.073306 0.995655 0.0574229 0.0504494 0.93492 0.351253 
-0.597076 -0.718377 -0.356981 -0.409624 -0.895922 -0.171847 0.683652 0.647809 -0.3361 
-0.118284 0.964997 0.23407 -0.347213 -0.934523 0.0781683 -0.362725 -0.912547 0.188915 
0.225762 0.973692 0.0309181 0.205644 0.971463 -0.118194 0.213986 -0.964108 0.157183 
-0.301905 -0.88571 0.352664 -0.0696078 0.949807 -0.304993 -0.277284 -0.93586 -0.217437 
0.19179 0.97676 0.0956866 0.0199904 -0.995687 0.0905998 -0.145381 -0.92711 0.345443 
0.18068 -0.97814 -0.102937 -0.22367 -0.954144 -0.198947 -0.0248632 0.995065 0.0960607 
0.0833958 0.99531 -0.049027 0.172109 0.969297 -0.175618 0.225062 0.967147 0.118211 
-0.0432222 -0.983952 -0.17312 -0.898699 -0.280647 -0.337011 -0.0881802 0.959824 0.266386 
0.152825 0.983166 -0.100142 0.286749 0.916988 -0.277322 0.0769172 0.966291 0.245692 
-0.418976 -0.906443 0.0531136 -0.0995343 0.831112 -0.547125 0.501609 -0.542302 -0.674016 
0.811088 -0.221794 -0.541242 -0.393565 0.754569 0.525102 0.114795 -0.986228 0.119063 
-0.113114 -0.985624 0.1255 -0.598234 -0.739409 0.308855 -0.0796741 -0.846382 0.526583 
0.412759 -0.693388 -0.590629 0.39271 -0.762998 -0.513432 -0.381442 -0.632108 0.674494 
0.0686003 0.997489 -0.0176228 0.463374 0.867042 -0.183089 -0.166231 0.942082 -0.291289 
0.698871 -0.347234 -0.625306 -0.275633 -0.734663 0.619916 -0.861669 -0.306779 0.404243 
0.165877 0.984589 0.0553958 -0.582772 -0.8054 0.108204 -0.436811 0.898901 0.0342577 
-0.841871 -0.529009 0.106784 -0.266334 -0.825392 0.49779 0.512521 0.770728 -0.37855 
-0.292542 -0.902646 0.315673 -0.545574 -0.824581 0.149715 -0.732796 -0.618372 -0.283949 
-0.652381 -0.615065 0.442825 -0.116793 -0.951296 0.2853 -0.523024 -0.84641 0.100179 
-0.634737 -0.662211 0.398228 -0.315124 -0.506943 -0.802313 0.779577 0.543106 -0.311922 
0.224163 -0.931861 -0.285283 -0.0354704 -0.144923 0.988807 0.0376104 -0.129825 -0.990823 
-0.753625 0.656093 0.0398952 0.302337 -0.907242 -0.292411 -0.589995 0.763714 0.262006 
-0.116925 -0.53665 -0.835665 0.0329525 0.470901 -0.88157 -0.962721 -0.189368 0.193154 
-0.829563 0.510963 -0.225261 -0.697751 0.514832 0.498088 -0.952905 -0.0940565 -0.288316 
-0.701678 -0.260277 -0.663253 -0.81786 0.569674 -0.0811004 0.539467 -0.838328 -0.0786198 
-0.705962 0.433719 0.559916 -0.571986 -0.649668 -0.500763 -0.162861 -0.811222 -0.5616 
-0.606384 -0.509291 -0.610672 -0.895352 -0.253553 0.366135 -0.0133474 0.703128 0.710938 
-0.00418285 0.9796 -0.200915 -0.390778 -0.800045 -0.455215 -0.953677 -0.232426 -0.190994 
-0.986632 -0.134729 0.0916846 0.0905864 -0.644863 0.758911 -0.877804 -0.475372 0.0590107 
-0.977121 -0.0782805 -0.197754 0.547577 0.545774 -0.634263 -0.224235 0.788693 -0.572435 
-0.0828491 -0.915932 0.392689 -0.120536 0.90897 -0.399053 0.132652 -0.959137 0.249921 
-0.966974 -0.0373722 0.252118 -0.83147 0.226839 0.50715 -0.569977 0.518987 0.637007 
-0.810416 0.138311 0.569295 -0.643735 0.344466 0.683336 -0.945142 0.068353 0.319429 
-0.869742 -0.262272 0.418046 0.547837 -0.834533 -0.0585526 0.506103 0.011589 -0.862395 
0.121679 0.324315 -0.938091 -0.604825 0.603791 0.519253 0.0881722 -0.473265 0.876496 
-0.963915 -0.223591 -0.14448 -0.914512 -0.328766 -0.235754 -0.0995173 -0.938451 0.330766 
-0.592618 0.45156 0.667006 -0.989579 0.0820057 -0.118357 -0.366252 -0.781848 0.504553 
-0.517218 0.0889738 -0.851217 -0.717441 -0.357714 -0.597761 -0.539454 0.810662 -0.227632 
-0.630586 0.46562 -0.620934 -0.820845 0.431801 -0.373848 -0.293483 0.864862 0.407285 
-0.561486 -0.00618372 -0.827463 -0.82615 -0.236298 -0.511507 0.14391 -0.621436 0.770134 
-0.391516 0.791002 -0.47014 -0.921087 0.137364 -0.364322 -0.685646 0.723621 -0.0791413 
-0.48941 0.10576 -0.865617 -0.619192 0.743722 0.25195 -0.57758 -0.251565 0.776606 
-0.452313 0.21189 0.866323 -0.5339 0.824705 0.186583 -0.920802 -0.229011 0.315717 
0.114826 -0.872363 -0.475182 -0.751729 -0.223075 0.620598 0.262827 -0.593019 0.761085 
-0.297627 0.516095 0.803159 0.0184968 0.966906 -0.254461 -0.108085 -0.89287 -0.437151 
0.0358228 -0.123616 0.991683 -0.640728 0.295632 -0.708568 -0.37353 -0.666522 -0.645154 
-0.645662 -0.555929 0.52351 -0.620906 0.78345 -0.0260935 -0.582885 0.626995 -0.516838 
-0.126461 0.0283858 0.991565 -0.386764 0.0312839 0.921648 -0.350903 -0.179343 0.919078 
0.228133 0.897746 0.376839 -0.598277 -0.768567 -0.226648 -0.3631 0.102674 -0.926076 
-0.814454 -0.522722 -0.251847 -0.301574 0.784037 -0.542531 -0.638456 -0.164242 -0.75193 
-0.0655147 -0.703122 0.708044 -0.0660156 0.0178085 0.99766 -0.848222 0.448318 0.28201 
-0.304736 0.739771 -0.599896 -0.297336 -0.476827 -0.82718 -0.918188 0.39613 -0.00350813 
-0.740995 -0.350886 -0.572543 -0.598583 0.539718 -0.591948 -0.786179 -0.140195 -0.601887 
-0.0295775 0.819602 0.57217 -0.341302 0.917083 -0.206086 -0.573018 -0.335017 -0.74794 
-0.619622 0.784605 -0.0215127 -0.745648 -0.645137 -0.166752 -0.980505 -0.144901 -0.13272 
-0.811461 0.486665 0.323554 -0.540438 -0.530713 0.652894 -0.150057 0.859024 -0.489449 
-0.967313 -0.0493788 0.248731 -0.154209 -0.796516 0.584621 -0.899601 0.28911 -0.327313 
-0.880171 -0.435398 -0.189017 -0.504302 0.50252 -0.702248 -0.714706 0.398414 0.574858 
0.0500226 -0.176105 -0.9831 -0.724624 -0.334336 -0.602611 -0.949416 0.0618964 -0.30786 
-0.225761 0.917277 0.328078 -0.89905 -0.427202 -0.0959552 -0.0863644 -0.449976 -0.888855 
-0.909047 -0.0867511 -0.407564 -0.753026 -0.657672 -0.020476 -0.288639 -0.24925 0.924425 
-0.612519 -0.406406 -0.677978 -0.940936 0.33656 -0.0369626 -0.920599 -0.18426 -0.344305 